DF-ISE text

Info {
  version   = 1.0
  type      = xyplot
  datasets  = [
    "time"
    "Source OuterVoltage" "Source InnerVoltage" "Source QuasiFermiPotential" "Source DisplacementCurrent" "Source eCurrent"
    "Source hCurrent" "Source TotalCurrent" "Source Charge" "Gate OuterVoltage" "Gate InnerVoltage"
    "Gate QuasiFermiPotential" "Gate DisplacementCurrent" "Gate eCurrent" "Gate hCurrent" "Gate TotalCurrent"
    "Gate Charge" "Body OuterVoltage" "Body InnerVoltage" "Body QuasiFermiPotential" "Body DisplacementCurrent"
    "Body eCurrent" "Body hCurrent" "Body TotalCurrent" "Body Charge" "Drain OuterVoltage"
    "Drain InnerVoltage" "Drain QuasiFermiPotential" "Drain DisplacementCurrent" "Drain eCurrent" "Drain hCurrent"
    "Drain TotalCurrent" "Drain Charge" ]
  functions = [
    Time
    OuterVoltage InnerVoltage QuasiFermiPotential DisplacementCurrent eCurrent
    hCurrent TotalCurrent Charge OuterVoltage InnerVoltage
    QuasiFermiPotential DisplacementCurrent eCurrent hCurrent TotalCurrent
    Charge OuterVoltage InnerVoltage QuasiFermiPotential DisplacementCurrent
    eCurrent hCurrent TotalCurrent Charge OuterVoltage
    InnerVoltage QuasiFermiPotential DisplacementCurrent eCurrent hCurrent
    TotalCurrent Charge ]
}

Data {
      0.00000000000000E+00
      0.00000000000000E+00   0.00000000000000E+00   0.00000000000000E+00   0.00000000000000E+00  -5.00284405697370E-19
      2.20476091111236E-31  -5.00284405697150E-19   3.65061908994420E-15   0.00000000000000E+00   0.00000000000000E+00
      0.00000000000000E+00   0.00000000000000E+00   0.00000000000000E+00   0.00000000000000E+00   0.00000000000000E+00
     -2.36866748627995E-17   0.00000000000000E+00   0.00000000000000E+00   0.00000000000000E+00   0.00000000000000E+00
      3.80396830251091E-19  -4.38476469992260E-31   3.80396830250653E-19  -7.27566720369996E-15   0.00000000000000E+00
      0.00000000000000E+00   0.00000000000000E+00   0.00000000000000E+00   1.19887575446279E-19   2.18000378881024E-31
      1.19887575446497E-19   3.64873478861857E-15
      0.00000000000000E+00
      0.00000000000000E+00   0.00000000000000E+00   0.00000000000000E+00   0.00000000000000E+00  -6.54403027632815E-18
     -3.22810285489629E-33  -6.54403027632815E-18   3.65061908985099E-15   0.00000000000000E+00   0.00000000000000E+00
      0.00000000000000E+00   0.00000000000000E+00   0.00000000000000E+00   0.00000000000000E+00   0.00000000000000E+00
     -2.36866748627995E-17   0.00000000000000E+00   0.00000000000000E+00   0.00000000000000E+00   0.00000000000000E+00
      7.14479070166361E-18  -2.10968583589954E-33   7.14479070166361E-18  -7.27566720351367E-15   0.00000000000000E+00
      0.00000000000000E+00   0.00000000000000E+00   0.00000000000000E+00  -6.00760425335467E-19   5.33778869079583E-33
     -6.00760425335462E-19   3.64873478852549E-15
      1.00000000000000E-02
      0.00000000000000E+00   0.00000000000000E+00   0.00000000000000E+00   0.00000000000000E+00   3.95820438220329E-18
      4.66150830948354E-34   3.95820438220329E-18   3.65101995677315E-15  -5.00000000000000E-03  -5.00000000000000E-03
      0.00000000000000E+00   0.00000000000000E+00   0.00000000000000E+00   0.00000000000000E+00   0.00000000000000E+00
     -2.46321596150229E-17   0.00000000000000E+00   0.00000000000000E+00   0.00000000000000E+00   0.00000000000000E+00
     -1.88331763474494E-18  -4.36807030583634E-33  -1.88331763474495E-18  -7.27552345260035E-15   0.00000000000000E+00
      0.00000000000000E+00   0.00000000000000E+00   0.00000000000000E+00  -2.07488674745835E-18   3.90191947488799E-33
     -2.07488674745834E-18   3.64913565544222E-15
      2.94666666666667E-02
      0.00000000000000E+00   0.00000000000000E+00   0.00000000000000E+00   0.00000000000000E+00  -2.29000588309844E-18
      2.92142027920649E-33  -2.29000588309844E-18   3.65180181488654E-15  -1.47333333333333E-02  -1.47333333333333E-02
      0.00000000000000E+00   0.00000000000000E+00   0.00000000000000E+00   0.00000000000000E+00   0.00000000000000E+00
     -2.64724167214576E-17   0.00000000000000E+00   0.00000000000000E+00   0.00000000000000E+00   0.00000000000000E+00
     -2.67525861406566E-19  -2.44760789084584E-33  -2.67525861406568E-19  -7.27524691171006E-15   0.00000000000000E+00
      0.00000000000000E+00   0.00000000000000E+00   0.00000000000000E+00   2.55753174450501E-18  -4.73812388360646E-34
      2.55753174450501E-18   3.64991751354498E-15
      6.78808888888889E-02
      0.00000000000000E+00   0.00000000000000E+00   0.00000000000000E+00   0.00000000000000E+00   8.43214531998439E-18
      2.96712003755210E-33   8.43214531998439E-18   3.65335039357430E-15  -3.39404444444444E-02  -3.39404444444444E-02
      0.00000000000000E+00   0.00000000000000E+00   0.00000000000000E+00   0.00000000000000E+00   0.00000000000000E+00
     -3.01027852514712E-17   0.00000000000000E+00   0.00000000000000E+00   0.00000000000000E+00   0.00000000000000E+00
     -8.92715605202789E-18   2.00690550558542E-33  -8.92715605202789E-18  -7.27471370053438E-15   0.00000000000000E+00
      0.00000000000000E+00   0.00000000000000E+00   0.00000000000000E+00   4.95010732043517E-19  -4.97402554313753E-33
      4.95010732043513E-19   3.65146609221158E-15
      1.17880888888889E-01
      0.00000000000000E+00   0.00000000000000E+00   0.00000000000000E+00   0.00000000000000E+00  -1.91384582109900E-20
      5.73583228524846E-34  -1.91384582109894E-20   3.65537702198612E-15  -5.89404444444444E-02  -5.89404444444444E-02
      0.00000000000000E+00   0.00000000000000E+00   0.00000000000000E+00   0.00000000000000E+00   0.00000000000000E+00
     -3.48260620285889E-17   0.00000000000000E+00   0.00000000000000E+00   0.00000000000000E+00   0.00000000000000E+00
      5.04391598634447E-18  -3.98003815580024E-33   5.04391598634447E-18  -7.27404368055300E-15   0.00000000000000E+00
      0.00000000000000E+00   0.00000000000000E+00   0.00000000000000E+00  -5.02477752813348E-18   3.40645492727540E-33
     -5.02477752813348E-18   3.65349272059547E-15
      1.67880888888889E-01
      0.00000000000000E+00   0.00000000000000E+00   0.00000000000000E+00   0.00000000000000E+00  -4.31767848362559E-18
     -5.85414984496547E-33  -4.31767848362560E-18   3.65741558299062E-15  -8.39404444444445E-02  -8.39404444444445E-02
      0.00000000000000E+00   0.00000000000000E+00   0.00000000000000E+00   0.00000000000000E+00   0.00000000000000E+00
     -3.95472187364313E-17   0.00000000000000E+00   0.00000000000000E+00   0.00000000000000E+00   0.00000000000000E+00
     -3.64009893163097E-18   1.59068935061839E-33  -3.64009893163097E-18  -7.27339964582582E-15   0.00000000000000E+00
      0.00000000000000E+00   0.00000000000000E+00   0.00000000000000E+00   7.95777741525656E-18   4.26346049434707E-33
      7.95777741525656E-18   3.65553128157164E-15
      2.17880888888889E-01
      0.00000000000000E+00   0.00000000000000E+00   0.00000000000000E+00   0.00000000000000E+00   6.67727764517736E-19
     -6.96184809978608E-33   6.67727764517729E-19   3.65946555085405E-15  -1.08940444444444E-01  -1.08940444444444E-01
      0.00000000000000E+00   0.00000000000000E+00   0.00000000000000E+00   0.00000000000000E+00   0.00000000000000E+00
     -4.42664193366958E-17   0.00000000000000E+00   0.00000000000000E+00   0.00000000000000E+00   0.00000000000000E+00
      1.93822956015300E-19   2.26797985149007E-33   1.93822956015302E-19  -7.27278038092379E-15   0.00000000000000E+00
      0.00000000000000E+00   0.00000000000000E+00   0.00000000000000E+00  -8.61550720533037E-19   4.69386824829600E-33
     -8.61550720533032E-19   3.65758124940644E-15
      2.67880888888889E-01
      0.00000000000000E+00   0.00000000000000E+00   0.00000000000000E+00   0.00000000000000E+00  -2.17726456231287E-18
     -4.22097458215892E-33  -2.17726456231287E-18   3.66152641967904E-15  -1.33940444444444E-01  -1.33940444444444E-01
      0.00000000000000E+00   0.00000000000000E+00   0.00000000000000E+00   0.00000000000000E+00   0.00000000000000E+00
     -4.89838226063149E-17   0.00000000000000E+00   0.00000000000000E+00   0.00000000000000E+00   0.00000000000000E+00
      4.65075687200342E-18   4.35535551106714E-33   4.65075687200342E-18  -7.27218471527525E-15   0.00000000000000E+00
      0.00000000000000E+00   0.00000000000000E+00   0.00000000000000E+00  -2.47349230969055E-18  -1.34380928908216E-34
     -2.47349230969055E-18   3.65964211820252E-15
      3.17880888888889E-01
      0.00000000000000E+00   0.00000000000000E+00   0.00000000000000E+00   0.00000000000000E+00  -5.42480661910422E-19
     -2.37714646812159E-33  -5.42480661910424E-19   3.66359769969722E-15  -1.58940444444444E-01  -1.58940444444444E-01
      0.00000000000000E+00   0.00000000000000E+00   0.00000000000000E+00   0.00000000000000E+00   0.00000000000000E+00
     -5.36995880005454E-17   0.00000000000000E+00   0.00000000000000E+00   0.00000000000000E+00   0.00000000000000E+00
      4.73367599023372E-18  -1.25875395157334E-33   4.73367599023372E-18  -7.27161150988825E-15   0.00000000000000E+00
      0.00000000000000E+00   0.00000000000000E+00   0.00000000000000E+00  -4.19119532832330E-18   3.63590041969494E-33
     -4.19119532832330E-18   3.66171339819157E-15
      3.67880888888889E-01
      0.00000000000000E+00   0.00000000000000E+00   0.00000000000000E+00   0.00000000000000E+00   4.80026895570501E-18
     -4.63876498714701E-33   4.80026895570500E-18   3.66567891230054E-15  -1.83940444444444E-01  -1.83940444444444E-01
      0.00000000000000E+00   0.00000000000000E+00   0.00000000000000E+00   0.00000000000000E+00   0.00000000000000E+00
     -5.84138839658836E-17   0.00000000000000E+00   0.00000000000000E+00   0.00000000000000E+00   0.00000000000000E+00
     -1.24505240225862E-17  -5.25635053529039E-34  -1.24505240225862E-17  -7.27105963910026E-15   0.00000000000000E+00
      0.00000000000000E+00   0.00000000000000E+00   0.00000000000000E+00   7.65025506688118E-18   5.16440004067605E-33
      7.65025506688119E-18   3.66379461076562E-15
      4.17880888888889E-01
      0.00000000000000E+00   0.00000000000000E+00   0.00000000000000E+00   0.00000000000000E+00   1.53537225116583E-18
     -6.15368978305486E-33   1.53537225116583E-18   3.66776958303391E-15  -2.08940444444444E-01  -2.08940444444444E-01
      0.00000000000000E+00   0.00000000000000E+00   0.00000000000000E+00   0.00000000000000E+00   0.00000000000000E+00
     -6.31269003310804E-17   0.00000000000000E+00   0.00000000000000E+00   0.00000000000000E+00   0.00000000000000E+00
     -1.94734591530193E-18   5.47436290683707E-33  -1.94734591530192E-18  -7.27052796417245E-15   0.00000000000000E+00
      0.00000000000000E+00   0.00000000000000E+00   0.00000000000000E+00   4.11973664136096E-19   6.79326876217795E-34
      4.11973664136097E-19   3.66588528146962E-15
      4.67880888888889E-01
      0.00000000000000E+00   0.00000000000000E+00   0.00000000000000E+00   0.00000000000000E+00  -9.83113018300963E-19
     -4.16234473764026E-33  -9.83113018300967E-19   3.66986923131180E-15  -2.33940444444444E-01  -2.33940444444444E-01
      0.00000000000000E+00   0.00000000000000E+00   0.00000000000000E+00   0.00000000000000E+00   0.00000000000000E+00
     -6.78388673918962E-17   0.00000000000000E+00   0.00000000000000E+00   0.00000000000000E+00   0.00000000000000E+00
      2.02879787005411E-18   4.45658316745120E-33   2.02879787005412E-18  -7.27001529363804E-15   0.00000000000000E+00
      0.00000000000000E+00   0.00000000000000E+00   0.00000000000000E+00  -1.04568485175315E-18  -2.94238429810947E-34
     -1.04568485175315E-18   3.66798492971813E-15
      5.17880888888889E-01
      0.00000000000000E+00   0.00000000000000E+00   0.00000000000000E+00   0.00000000000000E+00   1.94843501895678E-18
     -5.05282586101962E-33   1.94843501895677E-18   3.67197735488804E-15  -2.58940444444444E-01  -2.58940444444444E-01
      0.00000000000000E+00   0.00000000000000E+00   0.00000000000000E+00   0.00000000000000E+00   0.00000000000000E+00
     -7.25500859047132E-17   0.00000000000000E+00   0.00000000000000E+00   0.00000000000000E+00   0.00000000000000E+00
      3.09479089510397E-20   6.93455222437548E-33   3.09479089510466E-20  -7.26952032224834E-15   0.00000000000000E+00
      0.00000000000000E+00   0.00000000000000E+00   0.00000000000000E+00  -1.97938292790781E-18  -1.88172636335585E-33
     -1.97938292790781E-18   3.67009305326501E-15
      5.67880888888889E-01
      0.00000000000000E+00   0.00000000000000E+00   0.00000000000000E+00   0.00000000000000E+00  -2.85422656886749E-18
      9.14234162452542E-34  -2.85422656886749E-18   3.67409340594429E-15  -2.83940444444444E-01  -2.83940444444444E-01
      0.00000000000000E+00   0.00000000000000E+00   0.00000000000000E+00   0.00000000000000E+00   0.00000000000000E+00
     -7.72609747751432E-17   0.00000000000000E+00   0.00000000000000E+00   0.00000000000000E+00   0.00000000000000E+00
      1.80066900657863E-18  -6.17349139754998E-33   1.80066900657862E-18  -7.26904153546115E-15   0.00000000000000E+00
      0.00000000000000E+00   0.00000000000000E+00   0.00000000000000E+00   1.05355756228887E-18   5.25925723509744E-33
      1.05355756228887E-18   3.67220910429201E-15
      6.17880888888889E-01
      0.00000000000000E+00   0.00000000000000E+00   0.00000000000000E+00   0.00000000000000E+00   2.84256250057969E-18
     -4.08091852806712E-33   2.84256250057969E-18   3.67621675384364E-15  -3.08940444444444E-01  -3.08940444444444E-01
      0.00000000000000E+00   0.00000000000000E+00   0.00000000000000E+00   0.00000000000000E+00   0.00000000000000E+00
     -8.19721473052639E-17   0.00000000000000E+00   0.00000000000000E+00   0.00000000000000E+00   0.00000000000000E+00
     -5.46564892721808E-18   3.27184291928185E-33  -5.46564892721808E-18  -7.26857705870066E-15   0.00000000000000E+00
      0.00000000000000E+00   0.00000000000000E+00   0.00000000000000E+00   2.62308642663839E-18   8.09075608785274E-34
      2.62308642663839E-18   3.67433245216228E-15
      6.67880888888889E-01
      0.00000000000000E+00   0.00000000000000E+00   0.00000000000000E+00   0.00000000000000E+00   2.54055452102793E-18
     -6.40181900175130E-33   2.54055452102792E-18   3.67834662681980E-15  -3.33940444444444E-01  -3.33940444444444E-01
      0.00000000000000E+00   0.00000000000000E+00   0.00000000000000E+00   0.00000000000000E+00   0.00000000000000E+00
     -8.66845331769365E-17   0.00000000000000E+00   0.00000000000000E+00   0.00000000000000E+00   0.00000000000000E+00
     -4.61915291487984E-18   2.12092642135755E-33  -4.61915291487984E-18  -7.26812441875246E-15   0.00000000000000E+00
      0.00000000000000E+00   0.00000000000000E+00   0.00000000000000E+00   2.07859839385191E-18   4.28089258039375E-33
      2.07859839385192E-18   3.67646232510960E-15
      7.17880888888889E-01
      0.00000000000000E+00   0.00000000000000E+00   0.00000000000000E+00   0.00000000000000E+00   3.55330790459462E-18
     -6.96597342262810E-33   3.55330790459461E-18   3.68048202083434E-15  -3.58940444444445E-01  -3.58940444444445E-01
      0.00000000000000E+00   0.00000000000000E+00   0.00000000000000E+00   0.00000000000000E+00   0.00000000000000E+00
     -9.13995727063534E-17   0.00000000000000E+00   0.00000000000000E+00   0.00000000000000E+00   0.00000000000000E+00
     -3.92613925559745E-18  -5.93514669806056E-34  -3.92613925559745E-18  -7.26768016722362E-15   0.00000000000000E+00
      0.00000000000000E+00   0.00000000000000E+00   0.00000000000000E+00   3.72831351002834E-19   7.55948809243415E-33
      3.72831351002842E-19   3.67859771909563E-15
      7.67880888888889E-01
      0.00000000000000E+00   0.00000000000000E+00   0.00000000000000E+00   0.00000000000000E+00  -8.62467730908418E-19
     -3.36380423357008E-33  -8.62467730908421E-19   3.68262155848551E-15  -3.83940444444445E-01  -3.83940444444445E-01
      0.00000000000000E+00   0.00000000000000E+00   0.00000000000000E+00   0.00000000000000E+00   0.00000000000000E+00
     -9.61195226357357E-17   0.00000000000000E+00   0.00000000000000E+00   0.00000000000000E+00   0.00000000000000E+00
     -2.53768548042288E-18  -8.62366038875374E-34  -2.53768548042288E-18  -7.26723929256846E-15   0.00000000000000E+00
      0.00000000000000E+00   0.00000000000000E+00   0.00000000000000E+00   3.40015321133130E-18   4.22617027244545E-33
      3.40015321133131E-18   3.68073725671867E-15
      8.17880888888889E-01
      0.00000000000000E+00   0.00000000000000E+00   0.00000000000000E+00   0.00000000000000E+00   9.85638092047694E-18
     -4.90932535181317E-33   9.85638092047694E-18   3.68476327519959E-15  -4.08940444444445E-01  -4.08940444444445E-01
      0.00000000000000E+00   0.00000000000000E+00   0.00000000000000E+00   0.00000000000000E+00   0.00000000000000E+00
     -1.00847926955025E-16   0.00000000000000E+00   0.00000000000000E+00   0.00000000000000E+00   0.00000000000000E+00
     -8.30759508084569E-18   2.47681476022036E-33  -8.30759508084569E-18  -7.26679432164971E-15   0.00000000000000E+00
      0.00000000000000E+00   0.00000000000000E+00   0.00000000000000E+00  -1.54878583963124E-18   2.43251059159281E-33
     -1.54878583963124E-18   3.68287897340515E-15
      8.67880888888889E-01
      0.00000000000000E+00   0.00000000000000E+00   0.00000000000000E+00   0.00000000000000E+00  -3.29732494906485E-18
     -1.61123002054944E-33  -3.29732494906485E-18   3.68690430797904E-15  -4.33940444444445E-01  -4.33940444444445E-01
      0.00000000000000E+00   0.00000000000000E+00   0.00000000000000E+00   0.00000000000000E+00   0.00000000000000E+00
     -1.05590313519475E-16   0.00000000000000E+00   0.00000000000000E+00   0.00000000000000E+00   0.00000000000000E+00
      3.69812339954935E-18  -4.16573367018335E-33   3.69812339954934E-18  -7.26633400061718E-15   0.00000000000000E+00
      0.00000000000000E+00   0.00000000000000E+00   0.00000000000000E+00  -4.00798450484491E-19   5.77696369073279E-33
     -4.00798450484485E-19   3.68502000615761E-15
      9.17880888888889E-01
      0.00000000000000E+00   0.00000000000000E+00   0.00000000000000E+00   0.00000000000000E+00  -2.30493437358557E-20
     -5.97936420196650E-34  -2.30493437358563E-20   3.68904047451365E-15  -4.58940444444445E-01  -4.58940444444445E-01
      0.00000000000000E+00   0.00000000000000E+00   0.00000000000000E+00   0.00000000000000E+00   0.00000000000000E+00
     -1.10355153672758E-16   0.00000000000000E+00   0.00000000000000E+00   0.00000000000000E+00   0.00000000000000E+00
     -1.51068980753783E-18  -2.18673320496696E-33  -1.51068980753784E-18  -7.26584149350690E-15   0.00000000000000E+00
      0.00000000000000E+00   0.00000000000000E+00   0.00000000000000E+00   1.53373915127369E-18   2.78466962516361E-33
      1.53373915127369E-18   3.68715617266600E-15
      9.67880888888889E-01
      0.00000000000000E+00   0.00000000000000E+00   0.00000000000000E+00   0.00000000000000E+00  -3.28270590970777E-18
     -9.00626782218862E-33  -3.28270590970778E-18   3.69116577962284E-15  -4.83940444444445E-01  -4.83940444444445E-01
      0.00000000000000E+00   0.00000000000000E+00   0.00000000000000E+00   0.00000000000000E+00   0.00000000000000E+00
     -1.15155016966131E-16   0.00000000000000E+00   0.00000000000000E+00   0.00000000000000E+00   0.00000000000000E+00
      1.01301698649657E-17   9.32562077819608E-33   1.01301698649657E-17  -7.26529224040667E-15   0.00000000000000E+00
      0.00000000000000E+00   0.00000000000000E+00   0.00000000000000E+00  -6.84746395525789E-18  -3.19352956007463E-34
     -6.84746395525789E-18   3.68928147774995E-15
      1.00000000000000E+00
      0.00000000000000E+00   0.00000000000000E+00   0.00000000000000E+00   0.00000000000000E+00  -2.52313941186941E-18
     -2.27196208147864E-33  -2.52313941186941E-18   3.69252158542894E-15  -5.00000000000000E-01  -5.00000000000000E-01
      0.00000000000000E+00   0.00000000000000E+00   0.00000000000000E+00   0.00000000000000E+00   0.00000000000000E+00
     -1.18264831379958E-16   0.00000000000000E+00   0.00000000000000E+00   0.00000000000000E+00   0.00000000000000E+00
      1.10349179891477E-17  -4.35319697772865E-33   1.10349179891477E-17  -7.26489403758944E-15   0.00000000000000E+00
      0.00000000000000E+00   0.00000000000000E+00   0.00000000000000E+00  -8.51177857727834E-18   6.62515905920729E-33
     -8.51177857727833E-18   3.69063728354046E-15
      1.00000000000000E-02
      0.00000000000000E+00   0.00000000000000E+00   0.00000000000000E+00   0.00000000000000E+00  -5.54010797895800E-18
      5.74073114888673E-33  -5.54010797895799E-18   3.68955688124362E-15  -4.65000000000000E-01  -4.65000000000000E-01
      0.00000000000000E+00   0.00000000000000E+00   0.00000000000000E+00   0.00000000000000E+00   0.00000000000000E+00
     -1.11514758088426E-16   0.00000000000000E+00   0.00000000000000E+00   0.00000000000000E+00   0.00000000000000E+00
      4.38501413290749E-18  -8.38982972807147E-33   4.38501413290748E-18  -7.26571470254496E-15   0.00000000000000E+00
      0.00000000000000E+00   0.00000000000000E+00   0.00000000000000E+00   1.15509384605051E-18   2.64909857918475E-33
      1.15509384605051E-18   3.68767257938976E-15
      2.97333333333333E-02
      0.00000000000000E+00   0.00000000000000E+00   0.00000000000000E+00   0.00000000000000E+00   1.08307008358333E-18
      3.25850806857676E-34   1.08307008358333E-18   3.68364885222501E-15  -3.95933333333333E-01  -3.95933333333333E-01
      0.00000000000000E+00   0.00000000000000E+00   0.00000000000000E+00   0.00000000000000E+00   0.00000000000000E+00
     -9.83864726761596E-17   0.00000000000000E+00   0.00000000000000E+00   0.00000000000000E+00   0.00000000000000E+00
     -3.04889804731454E-18  -3.63002544399975E-33  -3.04889804731454E-18  -7.26702692999372E-15   0.00000000000000E+00
      0.00000000000000E+00   0.00000000000000E+00   0.00000000000000E+00   1.96582796373121E-18   3.30417463714207E-33
      1.96582796373122E-18   3.68176455044486E-15
      6.81475555555556E-02
      0.00000000000000E+00   0.00000000000000E+00   0.00000000000000E+00   0.00000000000000E+00  -2.61234606101782E-18
     -4.24962953535853E-33  -2.61234606101783E-18   3.67219225658059E-15  -2.61483555555555E-01  -2.61483555555555E-01
      0.00000000000000E+00   0.00000000000000E+00   0.00000000000000E+00   0.00000000000000E+00   0.00000000000000E+00
     -7.30293050953685E-17   0.00000000000000E+00   0.00000000000000E+00   0.00000000000000E+00   0.00000000000000E+00
      2.11861353748727E-18   6.34650798486900E-33   2.11861353748728E-18  -7.26947090643982E-15   0.00000000000000E+00
      0.00000000000000E+00   0.00000000000000E+00   0.00000000000000E+00   4.93732523530552E-19  -2.09687844951047E-33
      4.93732523530549E-19   3.67030795495459E-15
      1.18147555555556E-01
      0.00000000000000E+00   0.00000000000000E+00   0.00000000000000E+00   0.00000000000000E+00   2.21258281127646E-18
      2.82826967761533E-33   2.21258281127646E-18   3.65762360230810E-15  -8.64835555555555E-02  -8.64835555555555E-02
      0.00000000000000E+00   0.00000000000000E+00   0.00000000000000E+00   0.00000000000000E+00   0.00000000000000E+00
     -4.00273634783242E-17   0.00000000000000E+00   0.00000000000000E+00   0.00000000000000E+00   0.00000000000000E+00
     -5.77236681194669E-18  -4.72127588894847E-33  -5.77236681194669E-18  -7.27333553971599E-15   0.00000000000000E+00
      0.00000000000000E+00   0.00000000000000E+00   0.00000000000000E+00   3.55978400067023E-18   1.89300621133314E-33
      3.55978400067023E-18   3.65573930088622E-15
      1.68147555555556E-01
      0.00000000000000E+00   0.00000000000000E+00   0.00000000000000E+00   0.00000000000000E+00  -1.87747251250027E-18
      1.83149404080241E-33  -1.87747251250027E-18   3.64361486145980E-15   8.85164444444445E-02   8.85164444444445E-02
      0.00000000000000E+00   0.00000000000000E+00   0.00000000000000E+00   0.00000000000000E+00   0.00000000000000E+00
     -6.92999064984910E-18   0.00000000000000E+00   0.00000000000000E+00   0.00000000000000E+00   0.00000000000000E+00
      3.22517665549833E-18  -7.85052252856354E-33   3.22517665549832E-18  -7.27841543103660E-15   0.00000000000000E+00
      0.00000000000000E+00   0.00000000000000E+00   0.00000000000000E+00  -1.34770414299806E-18   6.01902848776114E-33
     -1.34770414299805E-18   3.64173056022667E-15
      2.18147555555556E-01
      0.00000000000000E+00   0.00000000000000E+00   0.00000000000000E+00   0.00000000000000E+00  -3.36570004426074E-17
     -2.23438361641785E-33  -3.36570004426074E-17   3.63037614802232E-15   2.63516444444445E-01   2.63516444444445E-01
      0.00000000000000E+00   0.00000000000000E+00   0.00000000000000E+00   0.00000000000000E+00   0.00000000000000E+00
      2.63400991271265E-17   0.00000000000000E+00   0.00000000000000E+00   0.00000000000000E+00   0.00000000000000E+00
      6.86686262785482E-17  -2.83315439328491E-33   6.86686262785482E-17  -7.28520809409519E-15   0.00000000000000E+00
      0.00000000000000E+00   0.00000000000000E+00   0.00000000000000E+00  -3.50116258359407E-17   5.06753800970276E-33
     -3.50116258359407E-17   3.62849184694573E-15
      2.68147555555556E-01
      0.00000000000000E+00   0.00000000000000E+00   0.00000000000000E+00   0.00000000000000E+00  -8.22057536242021E-15
     -8.88950576715435E-32  -8.22057536242021E-15   3.61820299574132E-15   4.38516444444444E-01   4.38516444444444E-01
      0.00000000000000E+00   0.00000000000000E+00   0.00000000000000E+00   0.00000000000000E+00   0.00000000000000E+00
      5.99463742585931E-17   0.00000000000000E+00   0.00000000000000E+00   0.00000000000000E+00   0.00000000000000E+00
      1.66206919126821E-14   1.70358560720407E-31   1.66206919126821E-14  -7.29446806477832E-15   0.00000000000000E+00
      0.00000000000000E+00   0.00000000000000E+00   0.00000000000000E+00  -8.40011655026194E-15  -8.14635030488634E-32
     -8.40011655026194E-15   3.61631869477842E-15
      3.18147555555556E-01
      0.00000000000000E+00   0.00000000000000E+00   0.00000000000000E+00   0.00000000000000E+00  -8.17931625870679E-18
      1.92436044352460E-34  -8.17931625870679E-18   3.60751882927753E-15   6.13516444444445E-01   6.13516444444445E-01
      0.00000000000000E+00   0.00000000000000E+00   0.00000000000000E+00   0.00000000000000E+00   0.00000000000000E+00
      9.43295007342324E-17   0.00000000000000E+00   0.00000000000000E+00   0.00000000000000E+00   0.00000000000000E+00
      1.27587617205450E-17  -5.10914212270847E-33   1.27587617205450E-17  -7.30748285839095E-15   0.00000000000000E+00
      0.00000000000000E+00   0.00000000000000E+00   0.00000000000000E+00  -4.57944546183822E-18   4.91670607835601E-33
     -4.57944546183822E-18   3.60563452837919E-15
      3.68147555555556E-01
      0.00000000000000E+00   0.00000000000000E+00   0.00000000000000E+00   0.00000000000000E+00   1.47395491623686E-18
     -1.25286799958824E-33   1.47395491623686E-18   3.59895678003774E-15   7.88516444444444E-01   7.88516444444444E-01
      0.00000000000000E+00   0.00000000000000E+00   0.00000000000000E+00   0.00000000000000E+00   0.00000000000000E+00
      1.30977308138490E-16   0.00000000000000E+00   0.00000000000000E+00   0.00000000000000E+00   0.00000000000000E+00
     -9.01852390962705E-18  -5.69007274779118E-33  -9.01852390962706E-18  -7.32700656732477E-15   0.00000000000000E+00
      0.00000000000000E+00   0.00000000000000E+00   0.00000000000000E+00   7.54456899339021E-18   6.94294074737941E-33
      7.54456899339021E-18   3.59707247914854E-15
      4.18147555555556E-01
      0.00000000000000E+00   0.00000000000000E+00   0.00000000000000E+00   0.00000000000000E+00  -2.66728793546127E-15
      9.12639995375124E-31  -2.66728793546127E-15   3.59339919016938E-15   9.63516444444444E-01   9.63516444444444E-01
      0.00000000000000E+00   0.00000000000000E+00   0.00000000000000E+00   0.00000000000000E+00   0.00000000000000E+00
      1.74125858350386E-16   0.00000000000000E+00   0.00000000000000E+00   0.00000000000000E+00   0.00000000000000E+00
      5.41601095030530E-15  -1.77355225283351E-30   5.41601095030530E-15  -7.35903993776009E-15   0.00000000000000E+00
      0.00000000000000E+00   0.00000000000000E+00   0.00000000000000E+00  -2.74872301484403E-15   8.60912257458385E-31
     -2.74872301484403E-15   3.59151488924034E-15
      4.68147555555556E-01
      0.00000000000000E+00   0.00000000000000E+00   0.00000000000000E+00   0.00000000000000E+00   2.10663406169732E-17
     -2.52233808084895E-33   2.10663406169732E-17   3.59040518399444E-15   1.13851644444444E+00   1.13851644444444E+00
      0.00000000000000E+00   0.00000000000000E+00   0.00000000000000E+00   0.00000000000000E+00   0.00000000000000E+00
      2.25049545594987E-16   0.00000000000000E+00   0.00000000000000E+00   0.00000000000000E+00   0.00000000000000E+00
     -8.32227384598060E-19  -3.22364201292426E-33  -8.32227384598064E-19  -7.40397561259646E-15   0.00000000000000E+00
      0.00000000000000E+00   0.00000000000000E+00   0.00000000000000E+00  -2.02341132323752E-17   5.74598009377322E-33
     -2.02341132323751E-17   3.58852088300703E-15
      5.18147555555556E-01
      0.00000000000000E+00   0.00000000000000E+00   0.00000000000000E+00   0.00000000000000E+00  -3.76993924641706E-16
      1.89277174349442E-31  -3.76993924641706E-16   3.58851077072091E-15   1.31351644444444E+00   1.31351644444444E+00
      0.00000000000000E+00   0.00000000000000E+00   0.00000000000000E+00   0.00000000000000E+00   0.00000000000000E+00
      2.79664404220696E-16   0.00000000000000E+00   0.00000000000000E+00   0.00000000000000E+00   0.00000000000000E+00
      5.46310749780212E-16  -3.84907649620229E-31   5.46310749780212E-16  -7.45480164461713E-15   0.00000000000000E+00
      0.00000000000000E+00   0.00000000000000E+00   0.00000000000000E+00  -1.69316825138506E-16   1.95630475270787E-31
     -1.69316825138506E-16   3.58662646967553E-15
      5.68147555555556E-01
      0.00000000000000E+00   0.00000000000000E+00   0.00000000000000E+00   0.00000000000000E+00   8.74356418901779E-18