DF-ISE text

Info {
  version   = 1.0
  type      = xyplot
  datasets  = [
    "time"
    "Source OuterVoltage" "Source InnerVoltage" "Source QuasiFermiPotential" "Source DisplacementCurrent" "Source eCurrent"
    "Source hCurrent" "Source TotalCurrent" "Source Charge" "Gate OuterVoltage" "Gate InnerVoltage"
    "Gate QuasiFermiPotential" "Gate DisplacementCurrent" "Gate eCurrent" "Gate hCurrent" "Gate TotalCurrent"
    "Gate Charge" "Body OuterVoltage" "Body InnerVoltage" "Body QuasiFermiPotential" "Body DisplacementCurrent"
    "Body eCurrent" "Body hCurrent" "Body TotalCurrent" "Body Charge" "Drain OuterVoltage"
    "Drain InnerVoltage" "Drain QuasiFermiPotential" "Drain DisplacementCurrent" "Drain eCurrent" "Drain hCurrent"
    "Drain TotalCurrent" "Drain Charge" ]
  functions = [
    Time
    OuterVoltage InnerVoltage QuasiFermiPotential DisplacementCurrent eCurrent
    hCurrent TotalCurrent Charge OuterVoltage InnerVoltage
    QuasiFermiPotential DisplacementCurrent eCurrent hCurrent TotalCurrent
    Charge OuterVoltage InnerVoltage QuasiFermiPotential DisplacementCurrent
    eCurrent hCurrent TotalCurrent Charge OuterVoltage
    InnerVoltage QuasiFermiPotential DisplacementCurrent eCurrent hCurrent
    TotalCurrent Charge ]
}

Data {
      0.00000000000000E+00
      0.00000000000000E+00   0.00000000000000E+00   0.00000000000000E+00   0.00000000000000E+00  -2.06029958703997E-07
      2.72238501576015E-31  -2.06029958703997E-07   3.45492620180830E-15   0.00000000000000E+00   0.00000000000000E+00
      0.00000000000000E+00   0.00000000000000E+00   0.00000000000000E+00   0.00000000000000E+00   0.00000000000000E+00
      1.00642503852927E-14   0.00000000000000E+00   0.00000000000000E+00   0.00000000000000E+00   0.00000000000000E+00
      2.06029958703997E-07  -6.36144651538778E-21   2.06029958703991E-07  -1.83128700227958E-14   5.00000000000000E-01
      5.00000000000000E-01   0.00000000000000E+00   0.00000000000000E+00  -1.01396046657063E-23   6.36144651511554E-21
      6.35130691044984E-21   4.79369343569450E-15
      0.00000000000000E+00
      0.00000000000000E+00   0.00000000000000E+00   0.00000000000000E+00   0.00000000000000E+00  -6.34701166472929E-14
     -3.76396090889508E-31  -6.34701166472929E-14   3.45494783529234E-15   0.00000000000000E+00   0.00000000000000E+00
      0.00000000000000E+00   0.00000000000000E+00   0.00000000000000E+00   0.00000000000000E+00   0.00000000000000E+00
      1.00642542244288E-14   0.00000000000000E+00   0.00000000000000E+00   0.00000000000000E+00   0.00000000000000E+00
      6.34694175025225E-14  -5.51061999042237E-20   6.34693623963226E-14  -1.83128954945258E-14   5.00000000000000E-01
      5.00000000000000E-01   0.00000000000000E+00   0.00000000000000E+00   6.99144770348462E-19   5.51061999046001E-20
      7.54250970253062E-19   4.79369343480419E-15
      1.00000000000000E-02
      0.00000000000000E+00   0.00000000000000E+00   0.00000000000000E+00   0.00000000000000E+00  -2.52271532202758E-20
     -1.10089021156081E-32  -2.52271532202868E-20   3.45539117752518E-15  -5.00000000000000E-03  -5.00000000000000E-03
      0.00000000000000E+00   0.00000000000000E+00   0.00000000000000E+00   0.00000000000000E+00   0.00000000000000E+00
      9.96164999751880E-15   0.00000000000000E+00   0.00000000000000E+00   0.00000000000000E+00   0.00000000000000E+00
     -6.72226752711818E-19  -5.51129360171386E-20  -7.27339688728957E-19  -1.82112094789503E-14   5.00000000000000E-01
      5.00000000000000E-01   0.00000000000000E+00   0.00000000000000E+00   6.97453905932094E-19   5.51129360171496E-20
      7.52566841949243E-19   4.79416830390643E-15
      2.94666666666667E-02
      0.00000000000000E+00   0.00000000000000E+00   0.00000000000000E+00   0.00000000000000E+00  -2.55466353993278E-20
      2.64111884342718E-33  -2.55466353993251E-20   3.45625218273801E-15  -1.47333333333333E-02  -1.47333333333333E-02
      0.00000000000000E+00   0.00000000000000E+00   0.00000000000000E+00   0.00000000000000E+00   0.00000000000000E+00
      9.76090359206770E-15   0.00000000000000E+00   0.00000000000000E+00   0.00000000000000E+00   0.00000000000000E+00
     -6.69322944082306E-19  -5.51213867311722E-20  -7.24444330813478E-19  -1.80122471921509E-14   5.00000000000000E-01
      5.00000000000000E-01   0.00000000000000E+00   0.00000000000000E+00   6.94869579481634E-19   5.51213867311695E-20
      7.49990966212803E-19   4.79509141734552E-15
      6.78808888888889E-02
      0.00000000000000E+00   0.00000000000000E+00   0.00000000000000E+00   0.00000000000000E+00  -1.70292315574455E-19
      3.36917645119767E-31  -1.70292315574118E-19   3.45794328426076E-15  -3.39404444444444E-02  -3.39404444444444E-02
      0.00000000000000E+00   0.00000000000000E+00   0.00000000000000E+00   0.00000000000000E+00   0.00000000000000E+00
      9.36076421543184E-15   0.00000000000000E+00   0.00000000000000E+00   0.00000000000000E+00   0.00000000000000E+00
     -5.18558579380732E-19  -5.51381908005983E-20  -5.73696770181331E-19  -1.76156154261737E-14   5.00000000000000E-01
      5.00000000000000E-01   0.00000000000000E+00   0.00000000000000E+00   6.88850894955187E-19   5.51381908002614E-20
      7.43989085755448E-19   4.79690792648129E-15
      1.17880888888889E-01
      0.00000000000000E+00   0.00000000000000E+00   0.00000000000000E+00   0.00000000000000E+00  -2.40239418226341E-20
     -8.73298399192963E-33  -2.40239418226428E-20   3.46012843501198E-15  -5.89404444444444E-02  -5.89404444444444E-02
      0.00000000000000E+00   0.00000000000000E+00   0.00000000000000E+00   0.00000000000000E+00   0.00000000000000E+00
      8.83171956904394E-15   0.00000000000000E+00   0.00000000000000E+00   0.00000000000000E+00   0.00000000000000E+00
     -6.62079847143866E-19  -5.51605523941857E-20  -7.17240399538051E-19  -1.70911099255233E-14   5.00000000000000E-01
      5.00000000000000E-01   0.00000000000000E+00   0.00000000000000E+00   6.86103788966500E-19   5.51605523941944E-20
      7.41264341360694E-19   4.79926192146758E-15
      1.67880888888889E-01
      0.00000000000000E+00   0.00000000000000E+00   0.00000000000000E+00   0.00000000000000E+00  -2.37499819158056E-20
      2.42098853165167E-33  -2.37499819158032E-20   3.46229525264384E-15  -8.39404444444445E-02  -8.39404444444445E-02
      0.00000000000000E+00   0.00000000000000E+00   0.00000000000000E+00   0.00000000000000E+00   0.00000000000000E+00
      8.29298014258260E-15   0.00000000000000E+00   0.00000000000000E+00   0.00000000000000E+00   0.00000000000000E+00
     -6.59387119213481E-19  -5.51838155217458E-20  -7.14570934735227E-19  -1.65568792038059E-14   5.00000000000000E-01
      5.00000000000000E-01   0.00000000000000E+00   0.00000000000000E+00   6.83137101129286E-19   5.51838155217434E-20
      7.38320916651030E-19   4.80160380857929E-15
      2.17880888888889E-01
      0.00000000000000E+00   0.00000000000000E+00   0.00000000000000E+00   0.00000000000000E+00  -2.09176097235113E-20
     -2.94448562315658E-34  -2.09176097235116E-20   3.46444348003110E-15  -1.08940444444444E-01  -1.08940444444444E-01
      0.00000000000000E+00   0.00000000000000E+00   0.00000000000000E+00   0.00000000000000E+00   0.00000000000000E+00
      7.74412587253727E-15   0.00000000000000E+00   0.00000000000000E+00   0.00000000000000E+00   0.00000000000000E+00
     -6.60039387757642E-19  -5.52083257325783E-20  -7.15247713490220E-19  -1.60125024894559E-14   5.00000000000000E-01
      5.00000000000000E-01   0.00000000000000E+00   0.00000000000000E+00   6.80956997481153E-19   5.52083257325786E-20
      7.36165323213731E-19   4.80393313688737E-15
      2.67880888888889E-01
      0.00000000000000E+00   0.00000000000000E+00   0.00000000000000E+00   0.00000000000000E+00  -2.17550156166521E-20
     -1.71373182198853E-33  -2.17550156166538E-20   3.46657285932645E-15  -1.33940444444444E-01  -1.33940444444444E-01
      0.00000000000000E+00   0.00000000000000E+00   0.00000000000000E+00   0.00000000000000E+00   0.00000000000000E+00
      7.18475851141793E-15   0.00000000000000E+00   0.00000000000000E+00   0.00000000000000E+00   0.00000000000000E+00
     -6.57638004357110E-19  -5.52343476410765E-20  -7.12872351998186E-19  -1.54575807768054E-14   5.00000000000000E-01
      5.00000000000000E-01   0.00000000000000E+00   0.00000000000000E+00   6.79393019973762E-19   5.52343476410782E-20
      7.34627367614840E-19   4.80624940606092E-15
      3.17880888888889E-01
      0.00000000000000E+00   0.00000000000000E+00   0.00000000000000E+00   0.00000000000000E+00  -2.02288704611204E-20
     -2.14236993541852E-33  -2.02288704611226E-20   3.46868312102863E-15  -1.58940444444444E-01  -1.58940444444444E-01
      0.00000000000000E+00   0.00000000000000E+00   0.00000000000000E+00   0.00000000000000E+00   0.00000000000000E+00
      6.61451619758231E-15   0.00000000000000E+00   0.00000000000000E+00   0.00000000000000E+00   0.00000000000000E+00
     -6.57919470135816E-19  -5.52620383429774E-20  -7.13181508478793E-19  -1.48917513894672E-14   5.00000000000000E-01
      5.00000000000000E-01   0.00000000000000E+00   0.00000000000000E+00   6.78148340596936E-19   5.52620383429795E-20
      7.33410378939916E-19   4.80855207085644E-15
      3.67880888888889E-01
      0.00000000000000E+00   0.00000000000000E+00   0.00000000000000E+00   0.00000000000000E+00  -1.93404124009379E-20
      4.84669640783180E-33  -1.93404124009330E-20   3.47077397756701E-15  -1.83940444444444E-01  -1.83940444444444E-01
      0.00000000000000E+00   0.00000000000000E+00   0.00000000000000E+00   0.00000000000000E+00   0.00000000000000E+00
      6.03308687799055E-15   0.00000000000000E+00   0.00000000000000E+00   0.00000000000000E+00   0.00000000000000E+00
     -6.57999405649107E-19  -5.52914538556887E-20  -7.13290859504795E-19  -1.43147014048976E-14   5.00000000000000E-01
      5.00000000000000E-01   0.00000000000000E+00   0.00000000000000E+00   6.77339818050045E-19   5.52914538556839E-20
      7.32631271905729E-19   4.81084054934028E-15
      4.17880888888889E-01
      0.00000000000000E+00   0.00000000000000E+00   0.00000000000000E+00   0.00000000000000E+00  -2.01708807566096E-20
     -4.65254710020406E-33  -2.01708807566143E-20   3.47284512142920E-15  -2.08940444444444E-01  -2.08940444444444E-01
      0.00000000000000E+00   0.00000000000000E+00   0.00000000000000E+00   0.00000000000000E+00   0.00000000000000E+00
      5.44021954516368E-15   0.00000000000000E+00   0.00000000000000E+00   0.00000000000000E+00   0.00000000000000E+00
     -6.56562807500936E-19  -5.53225760703425E-20  -7.11885383571278E-19  -1.37261789006955E-14   5.00000000000000E-01
      5.00000000000000E-01   0.00000000000000E+00   0.00000000000000E+00   6.76733688257546E-19   5.53225760703471E-20
      7.32056264327893E-19   4.81311423410294E-15
      4.67880888888889E-01
      0.00000000000000E+00   0.00000000000000E+00   0.00000000000000E+00   0.00000000000000E+00  -1.99266741708134E-20
      4.18384681921019E-33  -1.99266741708092E-20   3.47489622731149E-15  -2.33940444444444E-01  -2.33940444444444E-01
      0.00000000000000E+00   0.00000000000000E+00   0.00000000000000E+00   0.00000000000000E+00   0.00000000000000E+00
      4.83573265250866E-15   0.00000000000000E+00   0.00000000000000E+00   0.00000000000000E+00   0.00000000000000E+00
     -6.56327692478394E-19  -5.53553395645143E-20  -7.11683032042908E-19  -1.31260013852570E-14   5.00000000000000E-01
      5.00000000000000E-01   0.00000000000000E+00   0.00000000000000E+00   6.76254366649207E-19   5.53553395645101E-20
      7.31609706213717E-19   4.81537250543704E-15
      5.17880888888889E-01
      0.00000000000000E+00   0.00000000000000E+00   0.00000000000000E+00   0.00000000000000E+00  -1.95499104686136E-20
     -3.56596058223744E-33  -1.95499104686172E-20   3.47692695741385E-15  -2.58940444444444E-01  -2.58940444444444E-01
      0.00000000000000E+00   0.00000000000000E+00   0.00000000000000E+00   0.00000000000000E+00   0.00000000000000E+00
      4.21951957505239E-15   0.00000000000000E+00   0.00000000000000E+00   0.00000000000000E+00   0.00000000000000E+00
     -6.56243181415864E-19  -5.53896468959094E-20  -7.11632828311774E-19  -1.25140612777805E-14   5.00000000000000E-01
      5.00000000000000E-01   0.00000000000000E+00   0.00000000000000E+00   6.75793091884478E-19   5.53896468959130E-20
      7.31182738780391E-19   4.81761474531445E-15
      5.67880888888889E-01
      0.00000000000000E+00   0.00000000000000E+00   0.00000000000000E+00   0.00000000000000E+00  -1.98070404658337E-20
     -4.68978620184130E-34  -1.98070404658341E-20   3.47893696887145E-15  -2.83940444444444E-01  -2.83940444444444E-01
      0.00000000000000E+00   0.00000000000000E+00   0.00000000000000E+00   0.00000000000000E+00   0.00000000000000E+00
      3.59155142451716E-15   0.00000000000000E+00   0.00000000000000E+00   0.00000000000000E+00   0.00000000000000E+00
     -6.55761976083881E-19  -5.54253736433878E-20  -7.11187349727269E-19  -1.18903287443878E-14   5.00000000000000E-01
      5.00000000000000E-01   0.00000000000000E+00   0.00000000000000E+00   6.75569016549714E-19   5.54253736433883E-20
      7.30994390193103E-19   4.81984035099922E-15
      6.17880888888889E-01
      0.00000000000000E+00   0.00000000000000E+00   0.00000000000000E+00   0.00000000000000E+00  -1.91836624875611E-20
     -1.05847956539146E-33  -1.91836624875622E-20   3.48092592241626E-15  -3.08940444444444E-01  -3.08940444444444E-01
      0.00000000000000E+00   0.00000000000000E+00   0.00000000000000E+00   0.00000000000000E+00   0.00000000000000E+00
      2.95187775679640E-15   0.00000000000000E+00   0.00000000000000E+00   0.00000000000000E+00   0.00000000000000E+00
     -6.56172174955603E-19  -5.54623699630908E-20  -7.11634544918693E-19  -1.12548524264455E-14   5.00000000000000E-01
      5.00000000000000E-01   0.00000000000000E+00   0.00000000000000E+00   6.75355837443164E-19   5.54623699630919E-20
      7.30818207406255E-19   4.82204874723290E-15
      6.67880888888889E-01
      0.00000000000000E+00   0.00000000000000E+00   0.00000000000000E+00   0.00000000000000E+00  -1.90404882643118E-20
      2.67286826992212E-33  -1.90404882643091E-20   3.48289349165637E-15  -3.33940444444444E-01  -3.33940444444444E-01
      0.00000000000000E+00   0.00000000000000E+00   0.00000000000000E+00   0.00000000000000E+00   0.00000000000000E+00
      2.30062566323649E-15   0.00000000000000E+00   0.00000000000000E+00   0.00000000000000E+00   0.00000000000000E+00
     -6.56131431449332E-19  -5.55004639003485E-20  -7.11631895349680E-19  -1.06077585510109E-14   5.00000000000000E-01
      5.00000000000000E-01   0.00000000000000E+00   0.00000000000000E+00   6.75171919713643E-19   5.55004639003458E-20
      7.30672383613989E-19   4.82423939611818E-15
      7.17880888888889E-01
      0.00000000000000E+00   0.00000000000000E+00   0.00000000000000E+00   0.00000000000000E+00  -1.94244982107263E-20
      8.65420538773269E-34  -1.94244982107255E-20   3.48483937273379E-15  -3.58940444444445E-01  -3.58940444444445E-01
      0.00000000000000E+00   0.00000000000000E+00   0.00000000000000E+00   0.00000000000000E+00   0.00000000000000E+00
      1.63799747987497E-15   0.00000000000000E+00   0.00000000000000E+00   0.00000000000000E+00   0.00000000000000E+00
     -6.55644170330751E-19  -5.55394678727208E-20  -7.11183638203472E-19  -9.94924865679097E-15   5.00000000000000E-01
      5.00000000000000E-01   0.00000000000000E+00   0.00000000000000E+00   6.75068668541477E-19   5.55394678727199E-20
      7.30608136414197E-19   4.82641180418254E-15
      7.67880888888889E-01
      0.00000000000000E+00   0.00000000000000E+00   0.00000000000000E+00   0.00000000000000E+00  -4.09373800927287E-18
      4.25003945284904E-29  -4.09373800923037E-18   3.48676329434491E-15  -3.83940444444445E-01  -3.83940444444445E-01
      0.00000000000000E+00   0.00000000000000E+00   0.00000000000000E+00   0.00000000000000E+00   0.00000000000000E+00
      9.64267043043441E-16   0.00000000000000E+00   0.00000000000000E+00   0.00000000000000E+00   0.00000000000000E+00
      3.49741493250001E-18  -5.55791871560717E-20   3.44183574534394E-18  -9.27959586414715E-15   5.00000000000000E-01
      5.00000000000000E-01   0.00000000000000E+00   0.00000000000000E+00   5.96323076772861E-19   5.55791871135713E-20
      6.51902263886433E-19   4.82856552675882E-15
      8.17880888888889E-01
      0.00000000000000E+00   0.00000000000000E+00   0.00000000000000E+00   0.00000000000000E+00  -4.06417533090087E-18
      4.23993191762319E-29  -4.06417533085847E-18   3.48866502788209E-15  -4.08940444444445E-01  -4.08940444444445E-01
      0.00000000000000E+00   0.00000000000000E+00   0.00000000000000E+00   0.00000000000000E+00   0.00000000000000E+00
      2.79774238824213E-16   0.00000000000000E+00   0.00000000000000E+00   0.00000000000000E+00   0.00000000000000E+00
      3.46857750648890E-18  -5.56194282653588E-20   3.41295807822354E-18  -8.59913943746917E-15   5.00000000000000E-01
      5.00000000000000E-01   0.00000000000000E+00   0.00000000000000E+00   5.95597824411969E-19   5.56194282229594E-20
      6.51217252634929E-19   4.83070017076300E-15
      8.67880888888889E-01
      0.00000000000000E+00   0.00000000000000E+00   0.00000000000000E+00   0.00000000000000E+00  -4.00473963401252E-18
      3.71520435451811E-29  -4.00473963397537E-18   3.49054439662033E-15  -4.33940444444445E-01  -4.33940444444445E-01
      0.00000000000000E+00   0.00000000000000E+00   0.00000000000000E+00   0.00000000000000E+00   0.00000000000000E+00
     -4.15082366506544E-16   0.00000000000000E+00   0.00000000000000E+00   0.00000000000000E+00   0.00000000000000E+00
      3.40901198219698E-18  -5.56600065337942E-20   3.35335197566318E-18  -7.90827742783523E-15   5.00000000000000E-01
      5.00000000000000E-01   0.00000000000000E+00   0.00000000000000E+00   5.95727651815550E-19   5.56600064966421E-20
      6.51387658312192E-19   4.83281539772161E-15
      9.17880888888889E-01
      0.00000000000000E+00   0.00000000000000E+00   0.00000000000000E+00   0.00000000000000E+00  -3.90977219182737E-18
      4.05956805733432E-29  -3.90977219178678E-18   3.49240128174355E-15  -4.58940444444445E-01  -4.58940444444445E-01
      0.00000000000000E+00   0.00000000000000E+00   0.00000000000000E+00   0.00000000000000E+00   0.00000000000000E+00
     -1.11985478663841E-15   0.00000000000000E+00   0.00000000000000E+00   0.00000000000000E+00   0.00000000000000E+00
      3.31314210745074E-18  -5.57007514936281E-20   3.25744135595711E-18  -7.20745742372742E-15   5.00000000000000E-01
      5.00000000000000E-01   0.00000000000000E+00   0.00000000000000E+00   5.96630084376630E-19   5.57007514530324E-20
      6.52330835829662E-19   4.83491092862232E-15
      9.67880888888889E-01
      0.00000000000000E+00   0.00000000000000E+00   0.00000000000000E+00   0.00000000000000E+00  -3.77118453584231E-18
      4.26012817474067E-29  -3.77118453579971E-18   3.49423562247691E-15  -4.83940444444445E-01  -4.83940444444445E-01
      0.00000000000000E+00   0.00000000000000E+00   0.00000000000000E+00   0.00000000000000E+00   0.00000000000000E+00
     -1.83405641438634E-15   0.00000000000000E+00   0.00000000000000E+00   0.00000000000000E+00   0.00000000000000E+00
      3.17302837832289E-18  -5.57415104965515E-20   3.11728686782634E-18  -6.49716575824569E-15   5.00000000000000E-01
      5.00000000000000E-01   0.00000000000000E+00   0.00000000000000E+00   5.98156157519423E-19   5.57415104539502E-20
      6.53897667973374E-19   4.83698655015516E-15
      1.00000000000000E+00
      0.00000000000000E+00   0.00000000000000E+00   0.00000000000000E+00   0.00000000000000E+00  -2.91613598703989E-19
      3.46519284425558E-30  -2.91613598700524E-19   3.49540207137501E-15  -5.00000000000000E-01  -5.00000000000000E-01
      0.00000000000000E+00   0.00000000000000E+00   0.00000000000000E+00   0.00000000000000E+00   0.00000000000000E+00
     -2.29758307868086E-15   0.00000000000000E+00   0.00000000000000E+00   0.00000000000000E+00   0.00000000000000E+00
     -3.77301311146561E-19  -5.57676381128737E-20  -4.33068949259435E-19  -6.03612831312074E-15   5.00000000000000E-01
      5.00000000000000E-01   0.00000000000000E+00   0.00000000000000E+00   6.68914909850551E-19   5.57676381094085E-20
      7.24682547959959E-19   4.83830932042659E-15
      1.00000000000000E-02
      0.00000000000000E+00   0.00000000000000E+00   0.00000000000000E+00   0.00000000000000E+00  -1.96025477820679E-20
     -1.26550753788435E-32  -1.96025477820805E-20   3.49173981417401E-15  -4.50000000000000E-01  -4.50000000000000E-01
      0.00000000000000E+00   0.00000000000000E+00   0.00000000000000E+00   0.00000000000000E+00   0.00000000000000E+00
     -8.66706577957723E-16   0.00000000000000E+00   0.00000000000000E+00   0.00000000000000E+00   0.00000000000000E+00
     -6.55055282896728E-19  -5.56861711941659E-20  -7.10741454090894E-19  -7.45919704298055E-15   5.00000000000000E-01
      5.00000000000000E-01   0.00000000000000E+00   0.00000000000000E+00   6.74657830678796E-19   5.56861711941785E-20
      7.30344001872975E-19   4.83416380676397E-15
      2.94666666666667E-02
      0.00000000000000E+00   0.00000000000000E+00   0.00000000000000E+00   0.00000000000000E+00  -1.25587287603856E-19
      2.52990785074922E-30  -1.25587287601326E-19   3.48435310564831E-15  -3.52666666666667E-01  -3.52666666666667E-01
      0.00000000000000E+00   0.00000000000000E+00   0.00000000000000E+00   0.00000000000000E+00   0.00000000000000E+00
      1.80534014231666E-15   0.00000000000000E+00   0.00000000000000E+00   0.00000000000000E+00   0.00000000000000E+00
     -5.45087336449758E-19  -5.55296048858413E-20  -6.00616941335599E-19  -1.01155616235674E-14   5.00000000000000E-01
      5.00000000000000E-01   0.00000000000000E+00   0.00000000000000E+00   6.70674624053614E-19   5.55296048833114E-20
      7.26204228936925E-19   4.82586837560214E-15
      6.73617777777778E-02
      0.00000000000000E+00   0.00000000000000E+00   0.00000000000000E+00   0.00000000000000E+00  -2.04860786443310E-20
     -9.59442396802529E-33  -2.04860786443406E-20   3.46903999981490E-15  -1.63191111111111E-01  -1.63191111111111E-01
      0.00000000000000E+00   0.00000000000000E+00   0.00000000000000E+00   0.00000000000000E+00   0.00000000000000E+00
      6.51645477976330E-15   0.00000000000000E+00   0.00000000000000E+00   0.00000000000000E+00   0.00000000000000E+00
     -6.57533660580429E-19  -5.52669177973500E-20  -7.12800578377779E-19  -1.47944369702349E-14   5.00000000000000E-01
      5.00000000000000E-01   0.00000000000000E+00   0.00000000000000E+00   6.78019739224760E-19   5.52669177973596E-20
      7.33286657022120E-19   4.80894219065648E-15
      1.17361777777778E-01
      0.00000000000000E+00   0.00000000000000E+00   0.00000000000000E+00   0.00000000000000E+00  -5.75150751649366E-20
      7.41909048676959E-30  -5.75150751575175E-20   3.44714090448879E-15   8.68088888888889E-02   8.68088888888889E-02
      0.00000000000000E+00   0.00000000000000E+00   0.00000000000000E+00   0.00000000000000E+00   0.00000000000000E+00
      1.17928889205139E-14   0.00000000000000E+00   0.00000000000000E+00   0.00000000000000E+00   0.00000000000000E+00
     -6.96271887644180E-19  -5.50317901350285E-20  -7.51303677779209E-19  -2.00254091060255E-14   5.00000000000000E-01
      5.00000000000000E-01   0.00000000000000E+00   0.00000000000000E+00   7.53786962809117E-19   5.50317901276094E-20
      8.08818752936727E-19   4.78537928102303E-15
      1.67361777777778E-01
      0.00000000000000E+00   0.00000000000000E+00   0.00000000000000E+00   0.00000000000000E+00  -4.31739990079352E-18
      1.48488779882250E-33  -4.31739990079352E-18   3.42370905812237E-15   3.36808888888889E-01   3.36808888888889E-01
      0.00000000000000E+00   0.00000000000000E+00   0.00000000000000E+00   0.00000000000000E+00   0.00000000000000E+00
      1.63071493982556E-14   0.00000000000000E+00   0.00000000000000E+00   0.00000000000000E+00   0.00000000000000E+00
     -7.76932173473349E-19  -5.47496405882160E-20  -8.31681814061565E-19  -2.44916328001396E-14   5.00000000000000E-01
      5.00000000000000E-01   0.00000000000000E+00   0.00000000000000E+00   5.09433207426687E-18   5.47496405882145E-20
      5.14908171485509E-18   4.76077434376162E-15
      2.17361777777778E-01
      0.00000000000000E+00   0.00000000000000E+00   0.00000000000000E+00   0.00000000000000E+00  -7.14667021377122E-16
     -2.00415847691758E-32  -7.14667021377122E-16   3.39999565744552E-15   5.86808888888889E-01   5.86808888888889E-01
      0.00000000000000E+00   0.00000000000000E+00   0.00000000000000E+00   0.00000000000000E+00   0.00000000000000E+00
      2.02972064168667E-14   0.00000000000000E+00   0.00000000000000E+00   0.00000000000000E+00   0.00000000000000E+00
     -7.65323713199264E-19  -5.42808342626638E-20  -8.19604547461928E-19  -2.84324681912656E-14   5.00000000000000E-01
      5.00000000000000E-01   0.00000000000000E+00   0.00000000000000E+00   7.15432345090321E-16   5.42808342626838E-20
      7.15486625924584E-16   4.73526611695361E-15
      2.67361777777778E-01
      0.00000000000000E+00   0.00000000000000E+00   0.00000000000000E+00   0.00000000000000E+00  -2.14793534479928E-13
      3.21600561567213E-32  -2.14793534479928E-13   3.37937841344949E-15   8.36808888888889E-01   8.36808888888889E-01
      0.00000000000000E+00   0.00000000000000E+00   0.00000000000000E+00   0.00000000000000E+00   0.00000000000000E+00
      2.37988828492704E-14   0.00000000000000E+00   0.00000000000000E+00   0.00000000000000E+00   0.00000000000000E+00
     -7.57204054066362E-19  -5.33616395347842E-20  -8.10565693601146E-19  -3.18871476674984E-14   5.00000000000000E-01
      5.00000000000000E-01   0.00000000000000E+00   0.00000000000000E+00   2.14794291683982E-13   5.33616395347520E-20
      2.14794345045622E-13   4.70888640477869E-15
      3.17361777777778E-01
      0.00000000000000E+00   0.00000000000000E+00   0.00000000000000E+00   0.00000000000000E+00  -9.86907549836535E-11
      1.18224230376388E-31  -9.86907549836535E-11   3.36445403091689E-15   1.08680888888889E+00   1.08680888888889E+00
      0.00000000000000E+00   0.00000000000000E+00   0.00000000000000E+00   0.00000000000000E+00   0.00000000000000E+00
      2.69511551069936E-14   0.00000000000000E+00   0.00000000000000E+00   0.00000000000000E+00   0.00000000000000E+00
      3.64441178629539E-16  -5.17344382693013E-20   3.64389444191270E-16  -3.49978700003826E-14   5.00000000000000E-01
      5.00000000000000E-01   0.00000000000000E+00   0.00000000000000E+00   9.86903905424749E-11   5.17344382691831E-20
      9.86903905942093E-11   4.68226086247224E-15
      3.67361777777778E-01
      0.00000000000000E+00   0.00000000000000E+00   0.00000000000000E+00   0.00000000000000E+00  -2.61716934416799E-08
      8.11302521883969E-33  -2.61716934416799E-08   3.35528282264345E-15   1.33680888888889E+00   1.33680888888889E+00
      0.00000000000000E+00   0.00000000000000E+00   0.00000000000000E+00   0.00000000000000E+00   0.00000000000000E+00
      3.05557916584497E-14   0.00000000000000E+00   0.00000000000000E+00   0.00000000000000E+00   0.00000000000000E+00
     -9.21922560002421E-19  -4.99166205408050E-20  -9.71839180543226E-19  -3.85690827984341E-14   5.00000000000000E-01
      5.00000000000000E-01   0.00000000000000E+00   0.00000000000000E+00   2.61716934426019E-08   4.99166205407969E-20
      2.61716934426518E-08   4.65800831734100E-15
      4.17361777777778E-01
      0.00000000000000E+00   0.00000000000000E+00   0.00000000000000E+00   0.00000000000000E+00  -3.17866795417019E-07
     -2.93595559813450E-34  -3.17866795417019E-07   3.34900455814379E-15   1.58680888888889E+00   1.58680888888889E+00
      0.00000000000000E+00   0.00000000000000E+00   0.00000000000000E+00   0.00000000000000E+00   0.00000000000000E+00
      3.61764818543374E-14   0.00000000000000E+00   0.00000000000000E+00   0.00000000000000E+00   0.00000000000000E+00
     -6.64144296094208E-19  -4.89837611816293E-20  -7.13128057275837E-19  -4.41646192199887E-14   5.00000000000000E-01
      5.00000000000000E-01   0.00000000000000E+00   0.00000000000000E+00   3.17866795417683E-07   4.89837611816296E-20
      3.17866795417732E-07   4.63913280750746E-15
      4.67361777777778E-01
      0.00000000000000E+00   0.00000000000000E+00   0.00000000000000E+00   0.00000000000000E+00  -1.05806603169861E-06
      1.62079418615493E-32  -1.05806603169861E-06   3.34351295247152E-15   1.83680888888889E+00   1.83680888888889E+00
      0.00000000000000E+00   0.00000000000000E+00   0.00000000000000E+00   0.00000000000000E+00   0.00000000000000E+00
      4.23960190274227E-14   0.00000000000000E+00   0.00000000000000E+00   0.00000000000000E+00   0.00000000000000E+00
     -2.02524339184387E-20  -4.85971147227607E-20  -6.88495486411994E-20  -5.03656332457007E-14   5.00000000000000E-01
      5.00000000000000E-01   0.00000000000000E+00   0.00000000000000E+00   1.05806603169863E-06   4.85971147227445E-20
      1.05806603169868E-06   4.62610126580660E-15
      5.17361777777778E-01
      0.00000000000000E+00   0.00000000000000E+00   0.00000000000000E+00   0.00000000000000E+00  -2.23704844152840E-06
      2.02827428434357E-32  -2.23704844152840E-06   3.33836329421215E-15   2.08680888888889E+00   2.08680888888889E+00
      0.00000000000000E+00   0.00000000000000E+00   0.00000000000000E+00   0.00000000000000E+00   0.00000000000000E+00
      4.89915877739424E-14   0.00000000000000E+00   0.00000000000000E+00   0.00000000000000E+00   0.00000000000000E+00
      9.23978565837144E-19  -4.84043413045106E-20   8.75574224532633E-19  -5.69479790667323E-14   5.00000000000000E-01
      5.00000000000000E-01   0.00000000000000E+00   0.00000000000000E+00   2.23704844152748E-06   4.84043413044903E-20
      2.23704844152753E-06   4.61802799857781E-15
      5.67361777777778E-01
      0.00000000000000E+00   0.00000000000000E+00   0.00000000000000E+00   0.00000000000000E+00  -3.60835190290309E-06