DF-ISE text

Info {
  version   = 1.0
  type      = xyplot
  datasets  = [
    "time"
    "Source OuterVoltage" "Source InnerVoltage" "Source QuasiFermiPotential" "Source DisplacementCurrent" "Source eCurrent"
    "Source hCurrent" "Source TotalCurrent" "Source Charge" "Gate OuterVoltage" "Gate InnerVoltage"
    "Gate QuasiFermiPotential" "Gate DisplacementCurrent" "Gate eCurrent" "Gate hCurrent" "Gate TotalCurrent"
    "Gate Charge" "Body OuterVoltage" "Body InnerVoltage" "Body QuasiFermiPotential" "Body DisplacementCurrent"
    "Body eCurrent" "Body hCurrent" "Body TotalCurrent" "Body Charge" "Drain OuterVoltage"
    "Drain InnerVoltage" "Drain QuasiFermiPotential" "Drain DisplacementCurrent" "Drain eCurrent" "Drain hCurrent"
    "Drain TotalCurrent" "Drain Charge" ]
  functions = [
    Time
    OuterVoltage InnerVoltage QuasiFermiPotential DisplacementCurrent eCurrent
    hCurrent TotalCurrent Charge OuterVoltage InnerVoltage
    QuasiFermiPotential DisplacementCurrent eCurrent hCurrent TotalCurrent
    Charge OuterVoltage InnerVoltage QuasiFermiPotential DisplacementCurrent
    eCurrent hCurrent TotalCurrent Charge OuterVoltage
    InnerVoltage QuasiFermiPotential DisplacementCurrent eCurrent hCurrent
    TotalCurrent Charge ]
}

Data {
      0.00000000000000E+00
      0.00000000000000E+00   0.00000000000000E+00   0.00000000000000E+00   0.00000000000000E+00   1.34717045110477E-23
      2.65555848496793E-31   1.34717047766036E-23   3.45494783543312E-15   0.00000000000000E+00   0.00000000000000E+00
      0.00000000000000E+00   0.00000000000000E+00   0.00000000000000E+00   0.00000000000000E+00   0.00000000000000E+00
      1.01105377191252E-14   0.00000000000000E+00   0.00000000000000E+00   0.00000000000000E+00   0.00000000000000E+00
     -1.64965174422687E-23  -5.08433958960906E-31  -1.64965179507026E-23  -1.67278665691022E-14   0.00000000000000E+00
      0.00000000000000E+00   0.00000000000000E+00   0.00000000000000E+00   3.02481293122093E-24   2.42878110464113E-31
      3.02481317409904E-24   3.16238101454383E-15
      0.00000000000000E+00
      0.00000000000000E+00   0.00000000000000E+00   0.00000000000000E+00   0.00000000000000E+00  -1.68393484360744E-21
     -1.23238629285445E-33  -1.68393484360867E-21   3.45494783529287E-15   0.00000000000000E+00   0.00000000000000E+00
      0.00000000000000E+00   0.00000000000000E+00   0.00000000000000E+00   0.00000000000000E+00   0.00000000000000E+00
      1.01105377188527E-14   0.00000000000000E+00   0.00000000000000E+00   0.00000000000000E+00   0.00000000000000E+00
      3.66450692881520E-21   1.82999583449370E-33   3.66450692881703E-21  -1.67278665685494E-14   0.00000000000000E+00
      0.00000000000000E+00   0.00000000000000E+00   0.00000000000000E+00  -1.98057208520776E-21  -5.97609541639249E-34
     -1.98057208520836E-21   3.16238101440358E-15
      1.00000000000000E-02
      0.00000000000000E+00   0.00000000000000E+00   0.00000000000000E+00   0.00000000000000E+00  -5.85956509685467E-23
     -1.30017873486175E-32  -5.85956509815485E-23   3.45539117752518E-15  -5.00000000000000E-03  -5.00000000000000E-03
      0.00000000000000E+00   0.00000000000000E+00   0.00000000000000E+00   0.00000000000000E+00   0.00000000000000E+00
      1.00078761718677E-14   0.00000000000000E+00   0.00000000000000E+00   0.00000000000000E+00   0.00000000000000E+00
      2.53056681298525E-21   5.45838744306739E-33   2.53056681299071E-21  -1.66260917060285E-14   0.00000000000000E+00
      0.00000000000000E+00   0.00000000000000E+00   0.00000000000000E+00  -2.47197116201671E-21   7.54339990555016E-33
     -2.47197116200917E-21   3.16282435663589E-15
      2.94666666666667E-02
      0.00000000000000E+00   0.00000000000000E+00   0.00000000000000E+00   0.00000000000000E+00   1.06098774308614E-21
     -2.27477935394292E-34   1.06098774308591E-21   3.45625218273801E-15  -1.47333333333333E-02  -1.47333333333333E-02
      0.00000000000000E+00   0.00000000000000E+00   0.00000000000000E+00   0.00000000000000E+00   0.00000000000000E+00
      9.80701701543963E-15   0.00000000000000E+00   0.00000000000000E+00   0.00000000000000E+00   0.00000000000000E+00
     -2.38526082039556E-21  -3.20319618656489E-34  -2.38526082039588E-21  -1.64269545600262E-14   0.00000000000000E+00
      0.00000000000000E+00   0.00000000000000E+00   0.00000000000000E+00   1.32427307730942E-21   5.47797554050782E-34
      1.32427307730997E-21   3.16368536184872E-15
      6.78808888888889E-02
      0.00000000000000E+00   0.00000000000000E+00   0.00000000000000E+00   0.00000000000000E+00  -1.45437674585816E-19
      3.35766696596121E-31  -1.45437674585480E-19   3.45794328426076E-15  -3.39404444444444E-02  -3.39404444444444E-02
      0.00000000000000E+00   0.00000000000000E+00   0.00000000000000E+00   0.00000000000000E+00   0.00000000000000E+00
      9.40665057287432E-15   0.00000000000000E+00   0.00000000000000E+00   0.00000000000000E+00   0.00000000000000E+00
      3.07522032374040E-19  -6.82330374496016E-31   3.07522032373358E-19  -1.60299703205063E-14   0.00000000000000E+00
      0.00000000000000E+00   0.00000000000000E+00   0.00000000000000E+00  -1.62084357788224E-19   3.46563677899895E-31
     -1.62084357787878E-19   3.16537646337147E-15
      1.17880888888889E-01
      0.00000000000000E+00   0.00000000000000E+00   0.00000000000000E+00   0.00000000000000E+00   2.45325065048400E-22
     -9.26426075351390E-33   2.45325065039136E-22   3.46012843501198E-15  -5.89404444444444E-02  -5.89404444444444E-02
      0.00000000000000E+00   0.00000000000000E+00   0.00000000000000E+00   0.00000000000000E+00   0.00000000000000E+00
      8.87730118056787E-15   0.00000000000000E+00   0.00000000000000E+00   0.00000000000000E+00   0.00000000000000E+00
     -2.32298168092369E-21  -1.09565114033743E-33  -2.32298168092479E-21  -1.55049912297024E-14   0.00000000000000E+00
      0.00000000000000E+00   0.00000000000000E+00   0.00000000000000E+00   2.07765661587529E-21   1.03599118938513E-32
      2.07765661588565E-21   3.16756161412268E-15
      1.67880888888889E-01
      0.00000000000000E+00   0.00000000000000E+00   0.00000000000000E+00   0.00000000000000E+00  -1.89254796426370E-21
      1.78826579539672E-33  -1.89254796426191E-21   3.46229525264384E-15  -8.39404444444445E-02  -8.39404444444445E-02
      0.00000000000000E+00   0.00000000000000E+00   0.00000000000000E+00   0.00000000000000E+00   0.00000000000000E+00
      8.33824651057416E-15   0.00000000000000E+00   0.00000000000000E+00   0.00000000000000E+00   0.00000000000000E+00
      2.96499537930003E-21  -1.47223826045815E-32   2.96499537928530E-21  -1.49702701949728E-14   0.00000000000000E+00
      0.00000000000000E+00   0.00000000000000E+00   0.00000000000000E+00  -1.07244741503633E-21   1.29341168091848E-32
     -1.07244741502339E-21   3.16972843175455E-15
      2.17880888888889E-01
      0.00000000000000E+00   0.00000000000000E+00   0.00000000000000E+00   0.00000000000000E+00   2.54006040826583E-22
     -3.80364346522650E-33   2.54006040822779E-22   3.46444348003110E-15  -1.08940444444444E-01  -1.08940444444444E-01
      0.00000000000000E+00   0.00000000000000E+00   0.00000000000000E+00   0.00000000000000E+00   0.00000000000000E+00
      7.78906648439446E-15   0.00000000000000E+00   0.00000000000000E+00   0.00000000000000E+00   0.00000000000000E+00
      1.44011656703248E-22   2.08494679135432E-33   1.44011656705333E-22  -1.44253866235676E-14   0.00000000000000E+00
      0.00000000000000E+00   0.00000000000000E+00   0.00000000000000E+00  -3.98017697529831E-22   1.71869667387218E-33
     -3.98017697528112E-22   3.17187665914181E-15
      2.67880888888889E-01
      0.00000000000000E+00   0.00000000000000E+00   0.00000000000000E+00   0.00000000000000E+00  -8.43680828538521E-22
     -1.70327332152452E-33  -8.43680828540224E-22   3.46657285932645E-15  -1.33940444444444E-01  -1.33940444444444E-01
      0.00000000000000E+00   0.00000000000000E+00   0.00000000000000E+00   0.00000000000000E+00   0.00000000000000E+00
      7.22936294043714E-15   0.00000000000000E+00   0.00000000000000E+00   0.00000000000000E+00   0.00000000000000E+00
      2.12427265583136E-21  -1.10337060297947E-32   2.12427265582032E-21  -1.38699418382008E-14   0.00000000000000E+00
      0.00000000000000E+00   0.00000000000000E+00   0.00000000000000E+00  -1.28059182729284E-21   1.27369793513192E-32
     -1.28059182728010E-21   3.17400603843716E-15
      3.17880888888889E-01
      0.00000000000000E+00   0.00000000000000E+00   0.00000000000000E+00   0.00000000000000E+00  -1.68900044352571E-22
      3.32682811384009E-34  -1.68900044352239E-22   3.46868312102863E-15  -1.58940444444444E-01  -1.58940444444444E-01
      0.00000000000000E+00   0.00000000000000E+00   0.00000000000000E+00   0.00000000000000E+00   0.00000000000000E+00
      6.65877420641831E-15   0.00000000000000E+00   0.00000000000000E+00   0.00000000000000E+00   0.00000000000000E+00
      1.48009152704381E-21  -4.76439305056372E-33   1.48009152703905E-21  -1.33035736275861E-14   0.00000000000000E+00
      0.00000000000000E+00   0.00000000000000E+00   0.00000000000000E+00  -1.31119148269124E-21   4.43171023917971E-33
     -1.31119148268681E-21   3.17611630013934E-15
      3.67880888888889E-01
      0.00000000000000E+00   0.00000000000000E+00   0.00000000000000E+00   0.00000000000000E+00   1.05983047057106E-21
      7.67224451537595E-34   1.05983047057183E-21   3.47077397756701E-15  -1.83940444444444E-01  -1.83940444444444E-01
      0.00000000000000E+00   0.00000000000000E+00   0.00000000000000E+00   0.00000000000000E+00   0.00000000000000E+00
      6.07698852039781E-15   0.00000000000000E+00   0.00000000000000E+00   0.00000000000000E+00   0.00000000000000E+00
     -2.13582401154497E-21   1.00396401450916E-33  -2.13582401154397E-21  -1.27259696546423E-14   0.00000000000000E+00
      0.00000000000000E+00   0.00000000000000E+00   0.00000000000000E+00   1.07599354097391E-21  -1.77118846604675E-33
      1.07599354097214E-21   3.17820715667772E-15
      4.17880888888889E-01
      0.00000000000000E+00   0.00000000000000E+00   0.00000000000000E+00   0.00000000000000E+00  -3.32762998627367E-22
     -8.31599982859400E-33  -3.32762998635683E-22   3.47284512142920E-15  -2.08940444444444E-01  -2.08940444444444E-01
      0.00000000000000E+00   0.00000000000000E+00   0.00000000000000E+00   0.00000000000000E+00   0.00000000000000E+00
      5.48375526230777E-15   0.00000000000000E+00   0.00000000000000E+00   0.00000000000000E+00   0.00000000000000E+00
     -3.05898593609429E-22  -1.16015916692109E-32  -3.05898593621030E-22  -1.21368786842765E-14   0.00000000000000E+00
      0.00000000000000E+00   0.00000000000000E+00   0.00000000000000E+00   6.38661592236796E-22   1.99175914978049E-32
      6.38661592256713E-22   3.18027830053991E-15
      4.67880888888889E-01
      0.00000000000000E+00   0.00000000000000E+00   0.00000000000000E+00   0.00000000000000E+00  -3.59042878903422E-22
      5.95606439375100E-33  -3.59042878897466E-22   3.47489622731149E-15  -2.33940444444444E-01  -2.33940444444444E-01
      0.00000000000000E+00   0.00000000000000E+00   0.00000000000000E+00   0.00000000000000E+00   0.00000000000000E+00
      4.87889336105584E-15   0.00000000000000E+00   0.00000000000000E+00   0.00000000000000E+00   0.00000000000000E+00
      8.58916494457747E-22  -1.49838490196542E-32   8.58916494442763E-22  -1.15361189947894E-14   0.00000000000000E+00
      0.00000000000000E+00   0.00000000000000E+00   0.00000000000000E+00  -4.99873615554324E-22   9.02778462590315E-33
     -4.99873615545297E-22   3.18232940642220E-15
      5.17880888888889E-01
      0.00000000000000E+00   0.00000000000000E+00   0.00000000000000E+00   0.00000000000000E+00  -2.70644999189614E-22
     -3.00042613112356E-33  -2.70644999192614E-22   3.47692695741385E-15  -2.58940444444444E-01  -2.58940444444444E-01
      0.00000000000000E+00   0.00000000000000E+00   0.00000000000000E+00   0.00000000000000E+00   0.00000000000000E+00
      4.26229674532403E-15   0.00000000000000E+00   0.00000000000000E+00   0.00000000000000E+00   0.00000000000000E+00
      1.16862195874421E-21   8.76784205648638E-33   1.16862195875298E-21  -1.09235838392623E-14   0.00000000000000E+00
      0.00000000000000E+00   0.00000000000000E+00   0.00000000000000E+00  -8.97976959554600E-22  -5.76741592536282E-33
     -8.97976959560368E-22   3.18436013652456E-15
      5.67880888888889E-01
      0.00000000000000E+00   0.00000000000000E+00   0.00000000000000E+00   0.00000000000000E+00  -3.10839894481918E-22
      1.32905648452474E-33  -3.10839894480589E-22   3.47893696887145E-15  -2.83940444444444E-01  -2.83940444444444E-01
      0.00000000000000E+00   0.00000000000000E+00   0.00000000000000E+00   0.00000000000000E+00   0.00000000000000E+00
      3.63393714805490E-15   0.00000000000000E+00   0.00000000000000E+00   0.00000000000000E+00   0.00000000000000E+00
      6.81349496055021E-22  -4.92877914495785E-33   6.81349496050092E-22  -1.02992442649084E-14   0.00000000000000E+00
      0.00000000000000E+00   0.00000000000000E+00   0.00000000000000E+00  -3.70509601573103E-22   3.59972266043311E-33
     -3.70509601569503E-22   3.18637014798216E-15
      6.17880888888889E-01
      0.00000000000000E+00   0.00000000000000E+00   0.00000000000000E+00   0.00000000000000E+00   4.88937794995150E-22
     -1.86972002244947E-33   4.88937794993280E-22   3.48092592241626E-15  -3.08940444444444E-01  -3.08940444444444E-01
      0.00000000000000E+00   0.00000000000000E+00   0.00000000000000E+00   0.00000000000000E+00   0.00000000000000E+00
      2.99386480366216E-15   0.00000000000000E+00   0.00000000000000E+00   0.00000000000000E+00   0.00000000000000E+00
     -9.08954172899273E-22   3.40253708409647E-34  -9.08954172898933E-22  -9.66314982760525E-15   0.00000000000000E+00
      0.00000000000000E+00   0.00000000000000E+00   0.00000000000000E+00   4.20016377904124E-22   1.52946631403983E-33
      4.20016377905654E-22   3.18835910152697E-15
      6.67880888888889E-01
      0.00000000000000E+00   0.00000000000000E+00   0.00000000000000E+00   0.00000000000000E+00   1.58842323841716E-22
      2.36956262446775E-33   1.58842323844085E-22   3.48289349165637E-15  -3.33940444444444E-01  -3.33940444444444E-01
      0.00000000000000E+00   0.00000000000000E+00   0.00000000000000E+00   0.00000000000000E+00   0.00000000000000E+00
      2.34220753040859E-15   0.00000000000000E+00   0.00000000000000E+00   0.00000000000000E+00   0.00000000000000E+00
     -2.02522160059143E-22  -5.65110514468411E-33  -2.02522160064795E-22  -9.01542769283193E-15   0.00000000000000E+00
      0.00000000000000E+00   0.00000000000000E+00   0.00000000000000E+00   4.36798362174275E-23   3.28154252021636E-33
      4.36798362207090E-23   3.19032667076708E-15
      7.17880888888889E-01
      0.00000000000000E+00   0.00000000000000E+00   0.00000000000000E+00   0.00000000000000E+00  -3.78604636971513E-23
     -4.24917744727994E-34  -3.78604636975763E-23   3.48483937273379E-15  -3.58940444444445E-01  -3.58940444444445E-01
      0.00000000000000E+00   0.00000000000000E+00   0.00000000000000E+00   0.00000000000000E+00   0.00000000000000E+00
      1.67916843331449E-15   0.00000000000000E+00   0.00000000000000E+00   0.00000000000000E+00   0.00000000000000E+00
     -1.79022275805135E-22   2.50199807537661E-33  -1.79022275802633E-22  -8.35628035789245E-15   0.00000000000000E+00
      0.00000000000000E+00   0.00000000000000E+00   0.00000000000000E+00   2.16882739502286E-22  -2.07708033064861E-33
      2.16882739500209E-22   3.19227255184450E-15
      7.67880888888889E-01
      0.00000000000000E+00   0.00000000000000E+00   0.00000000000000E+00   0.00000000000000E+00  -4.07443603242450E-18
      4.24950760624255E-29  -4.07443603238201E-18   3.48676329434491E-15  -3.83940444444445E-01  -3.83940444444445E-01
      0.00000000000000E+00   0.00000000000000E+00   0.00000000000000E+00   0.00000000000000E+00   0.00000000000000E+00
      1.00502215689960E-15   0.00000000000000E+00   0.00000000000000E+00   0.00000000000000E+00   0.00000000000000E+00
      8.63705449878513E-18  -8.21917013474916E-29   8.63705449870294E-18  -7.68598192470007E-15   0.00000000000000E+00
      0.00000000000000E+00   0.00000000000000E+00   0.00000000000000E+00  -4.56261846636063E-18   3.96966252850662E-29
     -4.56261846632093E-18   3.19419647345559E-15
      8.17880888888889E-01
      0.00000000000000E+00   0.00000000000000E+00   0.00000000000000E+00   0.00000000000000E+00  -4.04539966666111E-18
      4.23941555361751E-29  -4.04539966661872E-18   3.48866502788209E-15  -4.08940444444445E-01  -4.08940444444445E-01
      0.00000000000000E+00   0.00000000000000E+00   0.00000000000000E+00   0.00000000000000E+00   0.00000000000000E+00
      3.20109434328900E-16   0.00000000000000E+00   0.00000000000000E+00   0.00000000000000E+00   0.00000000000000E+00
      8.57730047136096E-18  -8.03236925943154E-29   8.57730047128063E-18  -7.00487266920365E-15   0.00000000000000E+00
      0.00000000000000E+00   0.00000000000000E+00   0.00000000000000E+00  -4.53190080469984E-18   3.79295370581404E-29
     -4.53190080466191E-18   3.19609820699274E-15
      8.67880888888889E-01
      0.00000000000000E+00   0.00000000000000E+00   0.00000000000000E+00   0.00000000000000E+00  -3.98614447228869E-18
      3.71581066063947E-29  -3.98614447225153E-18   3.49054439662033E-15  -4.33940444444445E-01  -4.33940444444445E-01
      0.00000000000000E+00   0.00000000000000E+00   0.00000000000000E+00   0.00000000000000E+00   0.00000000000000E+00
     -3.75170284282038E-16   0.00000000000000E+00   0.00000000000000E+00   0.00000000000000E+00   0.00000000000000E+00
      8.45383480863313E-18  -7.09162182480856E-29   8.45383480856221E-18  -6.31335168806915E-15   0.00000000000000E+00
      0.00000000000000E+00   0.00000000000000E+00   0.00000000000000E+00  -4.46769033634445E-18   3.37581116416909E-29
     -4.46769033631069E-18   3.19797757573102E-15
      9.17880888888889E-01
      0.00000000000000E+00   0.00000000000000E+00   0.00000000000000E+00   0.00000000000000E+00  -3.89058545061174E-18
      4.05905034437189E-29  -3.89058545057115E-18   3.49240128174355E-15  -4.58940444444445E-01  -4.58940444444445E-01
      0.00000000000000E+00   0.00000000000000E+00   0.00000000000000E+00   0.00000000000000E+00   0.00000000000000E+00
     -1.08036810340054E-15   0.00000000000000E+00   0.00000000000000E+00   0.00000000000000E+00   0.00000000000000E+00
      8.25348530714030E-18  -7.73852589936473E-29   8.25348530706291E-18  -5.61186763919718E-15   0.00000000000000E+00
      0.00000000000000E+00   0.00000000000000E+00   0.00000000000000E+00  -4.36289985652857E-18   3.67947555499284E-29
     -4.36289985649177E-18   3.19983446085423E-15
      9.67880888888889E-01
      0.00000000000000E+00   0.00000000000000E+00   0.00000000000000E+00   0.00000000000000E+00  -3.75209522296107E-18
      4.26041580677143E-29  -3.75209522291846E-18   3.49423562247691E-15  -4.83940444444445E-01  -4.83940444444445E-01
      0.00000000000000E+00   0.00000000000000E+00   0.00000000000000E+00   0.00000000000000E+00   0.00000000000000E+00
     -1.79499650791414E-15   0.00000000000000E+00   0.00000000000000E+00   0.00000000000000E+00   0.00000000000000E+00
      7.96059296124105E-18  -8.15131151095493E-29   7.96059296115954E-18  -4.90090791615032E-15   0.00000000000000E+00
      0.00000000000000E+00   0.00000000000000E+00   0.00000000000000E+00  -4.20849773827998E-18   3.89089570418351E-29
     -4.20849773824107E-18   3.20166880158760E-15
      1.00000000000000E+00
      0.00000000000000E+00   0.00000000000000E+00   0.00000000000000E+00   0.00000000000000E+00  -2.72208674715355E-19
      3.45947136675373E-30  -2.72208674711895E-19   3.49540207137501E-15  -5.00000000000000E-01  -5.00000000000000E-01
      0.00000000000000E+00   0.00000000000000E+00   0.00000000000000E+00   0.00000000000000E+00   0.00000000000000E+00
     -2.25879764708893E-15   0.00000000000000E+00   0.00000000000000E+00   0.00000000000000E+00   0.00000000000000E+00
      5.77840446846701E-19  -6.64875987301810E-30   5.77840446840052E-19  -4.43943967477182E-15   0.00000000000000E+00
      0.00000000000000E+00   0.00000000000000E+00   0.00000000000000E+00  -3.05631772131346E-19   3.18928850626438E-30
     -3.05631772128157E-19   3.20283525048572E-15
      1.00000000000000E-02
      0.00000000000000E+00   0.00000000000000E+00   0.00000000000000E+00   0.00000000000000E+00  -2.37393182107290E-19
      3.19628335252735E-30  -2.37393182104094E-19   3.49284796442019E-15  -4.65000000000000E-01  -4.65000000000000E-01
      0.00000000000000E+00   0.00000000000000E+00   0.00000000000000E+00   0.00000000000000E+00   0.00000000000000E+00
     -1.25273464023896E-15   0.00000000000000E+00   0.00000000000000E+00   0.00000000000000E+00   0.00000000000000E+00
      5.03379062025740E-19  -6.15858906735206E-30   5.03379062019581E-19  -5.44039446771213E-15   0.00000000000000E+00
      0.00000000000000E+00   0.00000000000000E+00   0.00000000000000E+00  -2.65985879918450E-19   2.96230571482472E-30
     -2.65985879915487E-19   3.20028114353089E-15
      2.97333333333333E-02
      0.00000000000000E+00   0.00000000000000E+00   0.00000000000000E+00   0.00000000000000E+00   9.32849949315147E-23
      9.39388430249769E-33   9.32849949409086E-23   3.48767836663358E-15  -3.95933333333333E-01  -3.95933333333333E-01
      0.00000000000000E+00   0.00000000000000E+00   0.00000000000000E+00   0.00000000000000E+00   0.00000000000000E+00
      6.77779147834092E-16   0.00000000000000E+00   0.00000000000000E+00   0.00000000000000E+00   0.00000000000000E+00
     -5.99088176901762E-22  -2.53300347587736E-32  -5.99088176927092E-22  -7.36056906021194E-15   0.00000000000000E+00
      0.00000000000000E+00   0.00000000000000E+00   0.00000000000000E+00   5.05803181970247E-22   1.59361504562759E-32
      5.05803181986183E-22   3.19511154574429E-15
      6.81475555555556E-02
      0.00000000000000E+00   0.00000000000000E+00   0.00000000000000E+00   0.00000000000000E+00  -2.70312433196325E-22
     -5.21524650445507E-33  -2.70312433201540E-22   3.47713237706362E-15  -2.61483555555555E-01  -2.61483555555555E-01
      0.00000000000000E+00   0.00000000000000E+00   0.00000000000000E+00   0.00000000000000E+00   0.00000000000000E+00
      4.19891442637403E-15   0.00000000000000E+00   0.00000000000000E+00   0.00000000000000E+00   0.00000000000000E+00
      3.05825201023076E-23   4.72713629930602E-33   3.05825201070347E-23  -1.08606123596121E-14   0.00000000000000E+00
      0.00000000000000E+00   0.00000000000000E+00   0.00000000000000E+00   2.39729913094018E-22   4.88110205149052E-34
      2.39729913094506E-22   3.18456555617433E-15
      1.18147555555556E-01
      0.00000000000000E+00   0.00000000000000E+00   0.00000000000000E+00   0.00000000000000E+00   1.19173651598333E-21
     -2.23631985249767E-32   1.19173651596097E-21   3.46251463351491E-15  -8.64835555555555E-02  -8.64835555555555E-02
      0.00000000000000E+00   0.00000000000000E+00   0.00000000000000E+00   0.00000000000000E+00   0.00000000000000E+00
      8.28285099240083E-15   0.00000000000000E+00   0.00000000000000E+00   0.00000000000000E+00   0.00000000000000E+00
     -2.89840602048460E-21   9.21954603022632E-33  -2.89840602047538E-21  -1.49153134385407E-14   0.00000000000000E+00
      0.00000000000000E+00   0.00000000000000E+00   0.00000000000000E+00   1.70666950450126E-21   1.31436524947504E-32
      1.70666950451441E-21   3.16994781262562E-15
      1.68147555555556E-01
      0.00000000000000E+00   0.00000000000000E+00   0.00000000000000E+00   0.00000000000000E+00   4.89099812045449E-21
     -2.09570166269483E-32   4.89099812043354E-21   3.44698532892783E-15   8.85164444444445E-02   8.85164444444445E-02
      0.00000000000000E+00   0.00000000000000E+00   0.00000000000000E+00   0.00000000000000E+00   0.00000000000000E+00
      1.18731794885554E-14   0.00000000000000E+00   0.00000000000000E+00   0.00000000000000E+00   0.00000000000000E+00
     -8.86586015917564E-21   1.44154097281899E-32  -8.86586015916122E-21  -1.84745833255222E-14   0.00000000000000E+00
      0.00000000000000E+00   0.00000000000000E+00   0.00000000000000E+00   3.97486203872114E-21   6.54160689875840E-33
      3.97486203872768E-21   3.15441850803854E-15
      2.18147555555556E-01
      0.00000000000000E+00   0.00000000000000E+00   0.00000000000000E+00   0.00000000000000E+00  -3.21869411388966E-20
      2.77243632675756E-32  -3.21869411388689E-20   3.43069060551300E-15   2.63516444444445E-01   2.63516444444445E-01
      0.00000000000000E+00   0.00000000000000E+00   0.00000000000000E+00   0.00000000000000E+00   0.00000000000000E+00
      1.50946293536474E-14   0.00000000000000E+00   0.00000000000000E+00   0.00000000000000E+00   0.00000000000000E+00
      6.71710925701046E-20  -4.71986911807010E-32   6.71710925700574E-20  -2.16634437437838E-14   0.00000000000000E+00
      0.00000000000000E+00   0.00000000000000E+00   0.00000000000000E+00  -3.49841514312080E-20   1.94743279131255E-32
     -3.49841514311885E-20   3.13812378462371E-15
      2.68147555555556E-01
      0.00000000000000E+00   0.00000000000000E+00   0.00000000000000E+00   0.00000000000000E+00  -9.06160225351459E-21
     -6.82106160758869E-33  -9.06160225352141E-21   3.41396391613354E-15   4.38516444444444E-01   4.38516444444444E-01
      0.00000000000000E+00   0.00000000000000E+00   0.00000000000000E+00   0.00000000000000E+00   0.00000000000000E+00
      1.80363138948092E-14   0.00000000000000E+00   0.00000000000000E+00   0.00000000000000E+00   0.00000000000000E+00
      1.64154792171142E-20   1.06236904958701E-32   1.64154792171249E-20  -2.45716749061862E-14   0.00000000000000E+00
      0.00000000000000E+00   0.00000000000000E+00   0.00000000000000E+00  -7.35387696359965E-21  -3.80262888828142E-33
     -7.35387696360345E-21   3.12139709524425E-15
      3.18147555555556E-01
      0.00000000000000E+00   0.00000000000000E+00   0.00000000000000E+00   0.00000000000000E+00   4.75856133578575E-20
     -1.60912561389100E-32   4.75856133578414E-20   3.39756964503013E-15   6.13516444444445E-01   6.13516444444445E-01
      0.00000000000000E+00   0.00000000000000E+00   0.00000000000000E+00   0.00000000000000E+00   0.00000000000000E+00
      2.07473215822172E-14   0.00000000000000E+00   0.00000000000000E+00   0.00000000000000E+00   0.00000000000000E+00
     -3.98259425503548E-20   1.63060097505108E-32  -3.98259425503385E-20  -2.72498940513883E-14   0.00000000000000E+00
      0.00000000000000E+00   0.00000000000000E+00   0.00000000000000E+00  -7.75967080750269E-21  -2.14753611600830E-34
     -7.75967080750290E-21   3.10500282414084E-15
      3.68147555555556E-01
      0.00000000000000E+00   0.00000000000000E+00   0.00000000000000E+00   0.00000000000000E+00   7.40160077070123E-17
      1.49968755803224E-31   7.40160077070125E-17   3.38295048281070E-15   7.88516444444444E-01   7.88516444444444E-01
      0.00000000000000E+00   0.00000000000000E+00   0.00000000000000E+00   0.00000000000000E+00   0.00000000000000E+00
      2.32140795588000E-14   0.00000000000000E+00   0.00000000000000E+00   0.00000000000000E+00   0.00000000000000E+00
     -4.25434412055383E-15  -1.38916937556686E-30  -4.25434412055383E-15  -2.96874137035325E-14   0.00000000000000E+00
      0.00000000000000E+00   0.00000000000000E+00   0.00000000000000E+00   4.18032811284682E-15   1.23920061976363E-30
      4.18032811284682E-15   3.09038366192167E-15
      4.18147555555556E-01
      0.00000000000000E+00   0.00000000000000E+00   0.00000000000000E+00   0.00000000000000E+00  -2.31374429629039E-20
     -1.23123030997751E-32  -2.31374429629162E-20   3.37105538311110E-15   9.63516444444444E-01   9.63516444444444E-01
      0.00000000000000E+00   0.00000000000000E+00   0.00000000000000E+00   0.00000000000000E+00   0.00000000000000E+00
      2.54792898415452E-14   0.00000000000000E+00   0.00000000000000E+00   0.00000000000000E+00   0.00000000000000E+00
      2.95606660516550E-20   9.21619498676459E-33   2.95606660516642E-20  -3.19288337868786E-14   0.00000000000000E+00
      0.00000000000000E+00   0.00000000000000E+00   0.00000000000000E+00  -6.42322308875107E-21   3.09610811301048E-33
     -6.42322308874798E-21   3.07848856222181E-15
      4.68147555555556E-01
      0.00000000000000E+00   0.00000000000000E+00   0.00000000000000E+00   0.00000000000000E+00   1.97554728612319E-19
     -1.22170857160213E-32   1.97554728612307E-19   3.36212432429822E-15   1.13851644444444E+00   1.13851644444444E+00
      0.00000000000000E+00   0.00000000000000E+00   0.00000000000000E+00   0.00000000000000E+00   0.00000000000000E+00
      2.76703069463028E-14   0.00000000000000E+00   0.00000000000000E+00   0.00000000000000E+00   0.00000000000000E+00
     -4.62515490835116E-19   7.43872106515502E-33  -4.62515490835109E-19  -3.41019887740101E-14   0.00000000000000E+00
      0.00000000000000E+00   0.00000000000000E+00   0.00000000000000E+00   2.64960762222797E-19   4.77836465086626E-33
      2.64960762222802E-19   3.06955750340893E-15
      5.18147555555556E-01
      0.00000000000000E+00   0.00000000000000E+00   0.00000000000000E+00   0.00000000000000E+00  -2.40228232867076E-19
      5.01754530932645E-33  -2.40228232867071E-19   3.35595617335425E-15   1.31351644444444E+00   1.31351644444444E+00
      0.00000000000000E+00   0.00000000000000E+00   0.00000000000000E+00   0.00000000000000E+00   0.00000000000000E+00
      3.05797805933233E-14   0.00000000000000E+00   0.00000000000000E+00   0.00000000000000E+00   0.00000000000000E+00
      4.71687161729314E-19  -3.41001675790159E-32   4.71687161729280E-19  -3.69991261191428E-14   0.00000000000000E+00
      0.00000000000000E+00   0.00000000000000E+00   0.00000000000000E+00  -2.31458928862237E-19   2.90826222696895E-32
     -2.31458928862208E-19   3.06338935246495E-15
      5.68147555555556E-01
      0.00000000000000E+00   0.00000000000000E+00   0.00000000000000E+00   0.00000000000000E+00   3.58945488950095E-19